1680
step 0
P 14.98 6.34 -1.59
O 13.86 6.38 -0.59
O 14.84 6.79 -3.00
F 15.58 4.86 -1.55
F 16.23 7.06 -0.92
P -15.41 -8.98 3.52
O -14.83 -7.83 2.79
O -15.33 -9.33 5.00
F -15.02 -10.28 2.69
F -16.98 -9.05 3.13
P -13.01 5.42 12.03
O -14.33 5.16 12.64
O -11.66 4.84 12.39
F -12.84 7.03 11.96
F -13.33 5.31 10.47
P 8.22 -2.54 10.70
O 7.77 -3.33 11.88
O 8.33 -1.06 10.67
F 7.34 -3.03 9.45
F 9.62 -3.15 10.21
P -16.12 8.76 15.21
O -16.13 7.85 14.04
O -15.22 8.80 16.37
F -17.59 8.63 15.81
F -16.28 10.29 14.73
P -9.63 -16.28 -16.18
O -11.09 -16.04 -16.15
O -8.92 -17.53 -16.50
F -9.12 -15.77 -14.75
F -9.04 -15.15 -17.11
P 10.81 -16.33 0.34
O 9.31 -16.40 0.55
O 11.82 -16.52 1.42
F 11.06 -14.93 -0.35
F 11.14 -17.17 -0.99
P -16.28 3.12 4.54
O -16.31 4.62 4.26
O -15.07 2.24 4.61
F -17.28 2.40 3.51
F -17.27 2.86 5.80
P -13.05 -11.63 -1.98
O -12.61 -12.65 -0.99
O -14.45 -11.49 -2.48
F -12.05 -11.59 -3.21
F -12.67 -10.20 -1.40
P -7.79 -8.18 9.01
O -8.78 -9.10 8.40
O -6.36 -8.47 9.29
F -8.50 -7.46 10.27
F -7.77 -6.89 8.06
P 16.61 -1.33 6.26
O 16.48 0.04 5.59
O 15.81 -1.82 7.42
F 18.19 -1.63 6.50
F 16.44 -2.31 5.01
P 3.42 -6.46 13.17
O 2.02 -6.32 12.71
O 3.96 -7.45 14.13
F 3.79 -5.04 13.77
F 4.45 -6.28 11.92
P -8.83 -11.34 5.07
O -8.58 -11.79 3.66
O -9.68 -10.19 5.46
F -7.38 -10.97 5.67
F -9.10 -12.61 5.97
P -1.13 8.45 8.15
O -0.92 7.23 7.31
O -1.00 8.55 9.63
F -2.53 9.11 7.72
F -0.23 9.62 7.57
P -13.63 -4.93 -4.39
O -12.71 -4.99 -5.55
O -15.13 -4.72 -4.51
F -12.99 -3.84 -3.39
F -13.42 -6.26 -3.48
P 13.31 -0.19 -15.80
O 14.67 -0.30 -16.31
O 12.42 -1.37 -15.47
F 12.46 0.93 -16.57
F 13.36 0.65 -14.41
P 14.06 4.50 11.10
O 13.21 4.92 9.94
O 13.73 3.53 12.14
F 14.58 5.89 11.81
F 15.52 4.15 10.53
P -11.74 15.77 -2.19
O -12.15 16.50 -0.99
O -10.92 16.30 -3.32
F -13.05 15.18 -2.92
F -11.15 14.40 -1.67
P -15.62 2.20 -9.00
O -14.61 3.30 -9.07
O -16.97 2.30 -9.53
F -15.66 1.68 -7.47
F -14.90 0.90 -9.64
P 7.41 14.74 -13.96
O 6.89 15.17 -15.29
O 7.66 13.32 -13.55
F 6.57 15.54 -12.83
F 8.78 15.52 -13.69
P 12.48 2.99 -1.07
O 11.31 3.91 -1.07
O 13.50 2.73 -2.16
F 11.97 1.55 -0.52
F 13.33 3.39 0.27
P -2.34 8.28 13.48
O -1.50 9.32 12.82
O -2.52 6.82 13.09
F -3.83 8.89 13.60
F -2.06 8.35 15.07
P 14.76 15.50 4.07
O 14.13 16.60 3.25
O 16.10 15.57 4.72
F 14.68 14.08 3.30
F 13.67 15.16 5.18
P -14.02 -10.78 -10.54
O -13.66 -11.94 -9.67
O -15.38 -10.42 -11.09
F -12.96 -10.76 -11.76
F -13.46 -9.45 -9.81
P -16.05 8.43 -13.83
O -16.25 9.03 -12.49
O -15.88 9.24 -15.05
F -17.15 7.33 -14.05
F -14.79 7.46 -13.69
P -16.54 11.88 -9.33
O -17.36 12.53 -8.23
O -16.17 10.42 -9.37
F -15.24 12.75 -9.50
F -17.17 12.21 -10.76
P -14.09 -3.39 13.86
O -15.48 -2.96 13.60
O -13.69 -4.80 14.11
F -13.58 -2.48 15.08
F -13.10 -2.79 12.78
P 9.24 1.82 -3.26
O 8.89 3.19 -2.78
O 8.76 1.16 -4.49
F 9.15 0.75 -2.08
F 10.85 1.80 -3.30
P 8.17 0.91 14.92
O 8.27 0.32 13.54
O 8.08 2.37 15.26
F 9.42 0.30 15.73
F 7.02 0.01 15.65
P -10.17 2.82 -0.95
O -9.64 4.12 -0.39
O -10.70 2.65 -2.32
F -11.20 2.29 0.14
F -9.13 1.58 -0.67
P -12.28 -8.96 14.88
O -12.37 -7.95 13.77
O -13.17 -9.16 16.04
F -10.79 -8.86 15.47
F -12.00 -10.38 14.21
P -8.56 15.95 1.41
O -8.52 17.33 0.83
O -9.65 14.95 1.27
F -8.36 16.02 3.04
F -7.17 15.21 1.14
P 2.47 -14.75 3.45
O 3.61 -13.88 3.96
O 1.84 -15.79 4.27
F 2.74 -15.26 2.02
F 1.32 -13.70 3.04
P -10.55 13.78 9.57
O -10.37 12.90 8.40
O -11.48 13.56 10.75
F -10.90 15.22 8.97
F -9.09 14.07 10.16
P -9.83 11.32 -7.24
O -10.01 12.11 -8.50
O -10.13 9.89 -7.05
F -10.65 12.10 -6.10
F -8.42 11.69 -6.64
P 13.86 0.49 -8.67
O 14.96 0.13 -9.58
O 13.95 1.56 -7.64
F 13.30 -0.86 -8.03
F 12.53 0.82 -9.42
P -12.63 -2.19 -14.23
O -11.79 -1.26 -13.41
O -14.11 -2.22 -14.34
F -12.12 -3.63 -13.79
F -11.98 -2.27 -15.68
P 15.78 12.41 -3.87
O 16.39 12.36 -5.25
O 15.38 13.63 -3.15
F 16.75 11.56 -2.87
F 14.62 11.33 -3.85
P -9.84 -12.51 -13.78
O -10.52 -11.43 -13.00
O -10.53 -13.33 -14.84
F -9.22 -13.60 -12.72
F -8.42 -12.00 -14.31
P 0.79 -11.99 7.78
O 1.88 -12.07 6.73
O -0.07 -10.82 8.05
F 1.40 -12.45 9.17
F -0.11 -13.31 7.61
P 4.96 10.85 8.93
O 5.23 11.58 10.21
O 4.88 9.37 8.77
F 5.96 11.40 7.83
F 3.61 11.43 8.31
P 11.22 6.30 2.43
O 10.64 6.18 1.05
O 11.49 7.49 3.29
F 12.65 5.67 2.21
F 10.66 5.18 3.40
P -12.07 1.17 -6.11
O -12.74 1.89 -4.97
O -12.76 0.64 -7.35
F -11.10 0.00 -5.51
F -10.88 2.14 -6.52
P -7.13 -6.30 5.33
O -8.41 -5.60 5.35
O -6.96 -7.77 5.24
F -6.25 -5.75 6.54
F -6.19 -5.61 4.23
P 17.04 -17.25 8.64
O 16.54 -18.39 7.84
O 17.26 -15.87 8.12
F 18.35 -17.71 9.36
F 16.16 -17.21 9.99
P -17.22 -5.86 -13.78
O -18.39 -6.10 -14.68
O -16.45 -4.59 -13.66
F -16.23 -7.02 -14.17
F -17.54 -6.40 -12.32
P 12.28 5.38 -10.16
O 12.34 6.80 -10.58
O 13.17 4.78 -9.15
F 12.23 4.42 -11.43
F 10.76 5.12 -9.68
P -12.62 -15.07 -12.35
O -12.71 -13.94 -11.45
O -11.47 -16.03 -12.47
F -12.76 -14.48 -13.81
F -14.01 -15.83 -12.35
P -2.32 -2.17 9.09
O -2.48 -3.46 9.83
O -1.69 -0.98 9.74
F -3.72 -1.74 8.45
F -1.59 -2.45 7.65
P -16.73 -7.56 8.33
O -16.86 -7.27 9.80
O -16.75 -8.87 7.64
F -15.48 -6.72 7.83
F -17.79 -6.59 7.61
P -10.02 -11.79 -9.14
O -8.66 -11.35 -8.75
O -11.10 -12.30 -8.25
F -9.91 -12.77 -10.42
F -10.65 -10.60 -10.02
P 11.24 -4.36 -4.69
O 12.30 -4.73 -3.72
O 9.80 -4.16 -4.35
F 11.32 -5.40 -5.92
F 11.74 -3.10 -5.61
P -1.41 -7.33 -16.99
O -0.45 -8.14 -16.20
O -2.37 -6.31 -16.49
F -2.24 -8.37 -17.91
F -0.55 -6.77 -18.21
P 5.57 -12.96 7.38
O 6.97 -13.24 7.82
O 4.68 -13.98 6.79
F 5.60 -11.64 6.49
F 4.77 -12.20 8.51
P 15.70 -4.59 -1.42
O 17.07 -4.99 -1.84
O 14.80 -3.65 -2.16
F 15.76 -4.01 0.07
F 14.90 -5.95 -0.99
P 9.64 -3.01 3.09
O 10.86 -2.15 3.22
O 8.26 -2.68 3.51
F 10.02 -4.50 3.66
F 9.56 -3.46 1.52
P 2.18 -14.66 14.19
O 2.27 -15.42 12.88
O 1.25 -13.53 14.52
F 3.67 -14.27 14.70
F 1.94 -15.79 15.30
P 14.49 14.92 16.46
O 15.74 15.65 16.77
O 14.31 13.43 16.36
F 13.86 15.45 15.08
F 13.28 15.54 17.32
P 9.23 9.02 15.60
O 10.19 7.88 15.38
O 8.94 9.79 16.85
F 7.81 8.53 15.09
F 9.45 10.17 14.46
P 6.97 -5.64 -14.56
O 8.18 -5.46 -15.45
O 6.22 -6.92 -14.42
F 5.92 -4.49 -14.92
F 7.37 -5.12 -13.09
P -16.64 9.27 5.88
O -16.33 8.15 4.96
O -17.33 9.15 7.19
F -17.36 10.43 5.01
F -15.31 10.13 6.13
P -0.78 3.84 16.18
O -1.74 4.38 15.18
O -0.22 2.46 16.10
F -1.41 4.00 17.61
F 0.39 4.89 16.49
P -15.24 16.70 -17.01
O -14.63 17.49 -15.90
O -16.25 17.22 -17.96
F -15.76 15.30 -16.44
F -14.13 15.99 -17.89
P -13.48 15.10 2.77
O -14.91 15.60 2.79
O -12.70 14.78 1.56
F -13.38 13.79 3.71
F -12.55 16.04 3.72
P 16.21 -12.52 -3.99
O 16.44 -13.93 -4.33
O 17.25 -11.52 -3.49
F 15.02 -12.39 -2.94
F 15.44 -11.86 -5.26
P 7.21 -7.34 1.93
O 7.21 -8.51 1.03
O 8.37 -6.62 2.46
F 6.31 -7.76 3.19
F 6.26 -6.21 1.38
P 3.05 14.82 12.06
O 1.98 13.94 12.60
O 2.82 16.30 11.85
F 3.70 14.12 10.75
F 4.35 14.58 13.00
P 10.16 15.73 3.81
O 10.22 14.43 4.50
O 8.96 16.42 3.31
F 11.31 15.80 2.66
F 10.82 16.80 4.80
P 13.76 -14.59 4.84
O 14.79 -15.03 5.80
O 12.65 -15.41 4.18
F 14.50 -13.71 3.72
F 13.05 -13.32 5.61
P -3.96 0.36 2.02
O -4.10 0.39 3.52
O -2.68 0.18 1.28
F -4.71 1.67 1.47
F -5.04 -0.67 1.56
C 4.52 -13.00 -12.64
O 3.37 -13.31 -13.37
C 3.69 -13.27 -14.78
C 2.54 -13.64 -15.62
O 2.26 -14.98 -15.35
C 1.09 -15.43 -15.95
C 2.66 2.36 -14.25
O 2.78 3.69 -14.79
C 2.04 3.85 -15.98
C 2.94 3.26 -17.16
O 4.23 3.80 -17.06
C 4.78 4.09 -18.35
C 7.60 11.62 2.62
O 6.31 11.84 2.13
C 6.54 12.58 0.91
C 5.34 12.63 -0.03
O 4.26 13.37 0.54
C 3.47 12.58 1.44
C 14.54 4.18 -15.31
O 13.33 4.67 -14.78
C 13.49 5.95 -14.17
C 13.72 7.09 -15.15
O 12.56 7.29 -15.95
C 12.75 8.33 -16.79
C -15.59 -19.35 13.97
O -16.86 -18.79 13.80
C -17.02 -17.60 13.06
C -18.43 -16.89 13.41
O -18.32 -16.25 14.67
C -17.94 -14.92 14.41
C 9.43 -10.90 8.90
O 9.37 -9.92 7.89
C 8.23 -10.08 7.12
C 8.33 -8.98 5.99
O 8.45 -7.73 6.65
C 8.25 -6.66 5.72
C 15.65 6.56 6.78
O 15.91 6.74 5.43
C 14.69 6.88 4.64
C 15.09 7.52 3.28
O 16.26 6.82 2.79
C 15.88 5.50 2.41
C -7.33 -18.87 12.13
O -6.31 -17.90 12.14
C -6.76 -16.56 11.85
C -5.38 -15.76 11.57
O -5.06 -16.13 10.17
C -3.68 -16.16 9.95
C -16.28 -14.25 11.02
O -15.53 -13.94 12.19
C -14.53 -12.95 11.84
C -14.79 -11.63 12.47
O -16.11 -11.25 12.13
C -16.25 -10.51 10.88
C 2.46 -5.76 -17.88
O 2.12 -6.61 -16.74
C 3.13 -6.35 -15.77
C 2.63 -7.06 -14.45
O 2.52 -8.49 -14.55
C 3.78 -9.16 -14.45
C 7.79 7.57 1.66
O 6.46 7.10 1.81
C 5.54 8.16 2.17
C 4.15 7.57 1.90
O 4.08 7.58 0.51
C 2.89 7.01 0.07
C 6.04 -1.80 -16.61
O 7.12 -2.69 -16.68
C 8.26 -2.07 -17.29
C 9.53 -2.59 -16.59
O 9.86 -3.86 -17.07
C 10.94 -4.44 -16.34
C -0.52 1.52 -3.94
O -1.36 0.43 -4.10
C -1.94 -0.16 -2.95
C -3.07 0.73 -2.35
O -4.05 0.90 -3.38
C -4.02 2.06 -4.20
C 7.43 -2.15 -5.12
O 7.27 -1.25 -6.14
C 8.09 -1.74 -7.29
C 8.05 -0.65 -8.47
O 8.56 0.56 -7.99
C 10.00 0.49 -8.04
C 15.16 -5.58 16.08
O 16.47 -6.08 16.15
C 17.05 -5.91 14.87
C 17.22 -7.24 14.11
O 15.88 -7.76 13.97
C 15.39 -7.52 12.66
C -5.07 -17.24 -7.03
O -6.32 -16.67 -7.31
C -6.34 -15.67 -8.36
C -7.87 -15.20 -8.50
O -8.54 -16.23 -9.26
C -9.72 -15.88 -9.88
C -11.74 -15.93 11.37
O -11.63 -14.62 10.97
C -10.60 -14.10 10.19
C -10.97 -12.65 9.92
O -10.91 -11.86 11.08
C -11.38 -10.55 10.90
C -8.70 -7.82 -14.09
O -9.69 -7.20 -13.23
C -10.41 -8.29 -12.75
C -11.66 -7.82 -11.96
O -12.33 -6.74 -12.63
C -13.62 -6.40 -12.11
C -10.50 11.98 -15.59
O -10.69 12.94 -14.67
C -10.32 14.26 -14.94
C -10.66 15.14 -13.67
O -12.01 15.14 -13.33
C -12.73 15.93 -14.25
C 12.98 -7.25 -9.60
O 12.99 -8.25 -10.68
C 14.16 -8.09 -11.43
C 13.99 -8.85 -12.86
O 13.00 -8.18 -13.59
C 13.49 -7.16 -14.46
C -16.29 0.63 -4.62
O -16.31 -0.14 -3.43
C -15.66 -1.40 -3.63
C -15.77 -2.23 -2.34
O -15.21 -1.59 -1.20
C -13.81 -1.47 -1.18
C 10.37 17.80 -15.90
O 9.61 17.35 -17.02
C 10.41 16.49 -17.89
C 10.22 15.04 -17.51
O 8.86 14.81 -17.18
C 8.44 13.48 -17.34
C 8.88 -19.34 7.81
O 9.15 -18.46 8.86
C 8.43 -17.21 8.85
C 9.12 -16.30 9.81
O 10.39 -16.04 9.29
C 11.08 -14.99 9.88
C 9.61 -16.06 -11.77
O 9.13 -14.71 -11.80
C 9.86 -14.02 -12.79
C 9.56 -12.51 -12.81
O 9.80 -12.00 -11.52
C 11.11 -11.66 -11.17
C -10.51 -2.45 -6.71
O -9.10 -2.75 -6.70
C -8.30 -1.59 -6.76
C -6.91 -1.99 -6.27
O -6.15 -2.59 -7.29
C -4.86 -2.82 -6.85
C 1.71 -6.58 0.80
O 2.53 -6.99 -0.29
C 3.60 -7.89 0.06
C 4.83 -7.91 -0.92
O 4.40 -8.04 -2.32
C 4.00 -9.33 -2.52
C 2.42 -13.67 -1.26
O 3.58 -12.89 -1.08
C 4.31 -13.35 0.05
C 5.66 -12.63 0.07
O 6.54 -13.02 -0.97
C 7.18 -14.22 -0.85
C -6.56 10.37 14.54
O -7.02 11.39 15.32
C -7.66 12.37 14.53
C -7.95 13.69 15.40
O -6.72 14.24 15.71
C -6.23 13.93 17.03
C -2.72 -10.60 15.16
O -1.76 -11.59 15.20
C -2.09 -12.57 16.19
C -2.72 -13.90 15.68
O -1.74 -14.65 14.93
C -2.18 -15.89 14.58
C -4.12 11.74 11.66
O -4.47 11.36 10.36
C -5.01 12.39 9.54
C -6.57 12.17 9.61
O -6.88 10.93 8.93
C -6.99 11.03 7.53
C 0.80 -1.65 11.93
O 2.19 -1.66 11.67
C 2.88 -2.85 12.07
C 4.33 -2.84 11.62
O 4.97 -1.55 11.93
C 5.29 -1.59 13.31
C -2.07 4.82 -13.61
O -3.27 4.26 -13.06
C -4.35 4.45 -13.92
C -5.68 4.04 -13.11
O -6.00 5.05 -12.16
C -6.39 6.31 -12.67
C -0.14 -4.19 5.28
O 1.02 -4.16 4.47
C 0.62 -3.55 3.19
C 0.68 -2.00 3.21
O 1.95 -1.59 3.72
C 1.99 -0.21 3.85
C -2.00 3.77 -9.49
O -1.67 4.39 -8.28
C -2.46 3.93 -7.17
C -2.24 5.00 -6.08
O -2.88 6.22 -6.41
C -2.53 7.30 -5.52
C 19.11 -2.22 10.22
O 17.92 -2.48 10.96
C 17.60 -3.84 11.26
C 16.75 -4.39 10.15
O 15.53 -3.57 10.08
C 14.61 -4.32 9.26
C 17.25 -15.40 3.62
O 17.90 -15.05 4.83
C 18.53 -13.76 4.94
C 17.46 -12.65 5.21
O 16.70 -12.85 6.43
C 15.75 -11.83 6.53
C 10.23 7.13 -3.48
O 9.61 6.62 -2.32
C 8.28 7.06 -2.16
C 7.25 5.92 -1.79
O 7.84 5.11 -0.75
C 6.87 4.26 -0.14
C -3.26 -12.10 -14.91
O -4.32 -11.88 -15.80
C -5.13 -12.98 -16.13
C -6.14 -12.52 -17.23
O -5.56 -12.04 -18.47
C -6.58 -11.67 -19.40
C -0.23 -4.62 13.98
O -0.13 -3.53 14.89
C -1.13 -3.52 15.91
C -0.49 -3.24 17.34
O 0.01 -1.91 17.52
C 0.77 -1.27 16.53
C -6.48 -16.17 -19.07
O -5.50 -16.03 -18.02
C -5.79 -16.79 -16.87
C -4.51 -17.21 -16.10
O -3.93 -16.17 -15.38
C -2.55 -16.47 -15.13
C 1.70 9.48 4.21
O 2.97 8.91 4.59
C 2.89 8.27 5.89
C 2.18 6.89 5.82
O 2.78 6.06 4.91
C 1.95 4.96 4.59
C -7.95 -3.59 9.64
O -9.21 -3.37 9.00
C -9.40 -4.20 7.84
C -10.74 -3.65 7.20
O -11.85 -3.98 8.00
C -13.11 -3.54 7.53
C 9.33 -8.87 14.02
O 9.04 -7.81 14.91
C 7.63 -7.79 15.21
C 7.34 -6.78 16.30
O 7.61 -5.48 15.93
C 6.69 -4.92 14.98
C 7.92 14.19 10.59
O 7.13 13.59 11.60
C 7.75 13.56 12.92
C 7.18 12.31 13.59
O 5.75 12.26 13.46
C 5.30 10.96 13.64
C 3.00 -9.56 10.06
O 2.87 -8.86 8.86
C 4.01 -9.09 8.09
C 4.06 -7.97 7.06
O 4.26 -6.69 7.59
C 5.46 -6.64 8.30
C -8.27 -15.18 4.15
O -7.45 -15.15 2.98
C -6.11 -14.73 3.16
C -5.29 -15.48 4.16
O -5.35 -16.86 3.93
C -4.64 -17.36 2.76
C -9.50 2.46 13.53
O -8.47 2.07 12.60
C -8.83 0.84 12.14
C -8.69 0.83 10.52
O -7.40 1.22 10.00
C -6.45 0.17 10.15
C 0.53 13.26 -7.66
O 0.89 13.90 -8.86
C 2.31 14.10 -8.87
C 2.62 14.73 -10.11
O 2.23 13.91 -11.20
C 2.50 14.43 -12.47
C -11.70 1.96 -10.43
O -10.72 2.40 -11.35
C -10.22 1.30 -12.10
C -8.76 1.42 -12.32
O -8.03 1.24 -11.13
C -7.99 -0.14 -10.69
C -10.36 9.75 5.86
O -10.86 8.71 6.58
C -12.28 8.89 6.61
C -12.85 7.75 7.55
O -12.79 6.56 6.84
C -13.92 5.78 6.94
C 1.73 -1.91 8.10
O 1.52 -3.05 8.88
C 2.16 -4.23 8.52
C 1.44 -5.50 9.11
O 0.30 -5.78 8.30
C 0.12 -7.16 8.18
C -5.86 9.42 -7.71
O -5.64 10.80 -7.44
C -4.94 10.96 -6.24
C -4.62 12.45 -5.95
O -3.46 12.94 -6.68
C -3.24 14.33 -6.54
C -6.59 -3.96 0.17
O -7.07 -3.34 -1.07
C -7.96 -2.29 -0.75
C -8.34 -1.55 -1.95
O -9.03 -2.47 -2.72
C -10.45 -2.49 -2.58
C -7.72 17.39 -12.66
O -7.54 15.99 -12.67
C -6.19 15.60 -12.85
C -5.91 14.06 -12.69
O -6.12 13.43 -11.37
C -5.53 12.11 -11.36
C 12.76 17.47 7.34
O 12.27 16.39 8.09
C 13.32 15.85 8.94
C 13.12 16.31 10.36
O 11.82 16.08 10.80
C 11.55 16.41 12.13
C 2.18 7.31 -4.77
O 1.17 7.97 -5.49
C 1.68 8.44 -6.74
C 0.44 8.83 -7.63
O -0.19 9.92 -7.02
C -1.14 10.44 -7.96
C -12.91 -18.12 -9.30
O -13.47 -17.68 -8.10
C -13.07 -16.33 -7.82
C -13.98 -15.80 -6.74
O -15.29 -15.65 -7.25
C -16.21 -15.25 -6.28
C -10.95 9.63 -3.48
O -11.87 10.74 -3.58
C -11.74 11.53 -2.45
C -12.87 11.20 -1.46
O -14.05 11.52 -2.17
C -14.77 12.59 -1.56
C -1.18 -11.42 -11.26
O -0.25 -11.79 -10.27
C 0.96 -10.97 -10.44
C 1.93 -11.04 -9.24
O 1.34 -10.57 -8.03
C 2.07 -11.20 -6.98
C 0.16 -16.28 -12.37
O 0.07 -16.50 -10.97
C -0.56 -17.71 -10.55
C -0.69 -17.76 -9.02
O 0.58 -17.94 -8.50
C 0.47 -18.00 -7.08
C -13.30 -14.47 15.92
O -12.10 -13.95 16.39
C -11.64 -12.83 15.66
C -10.16 -12.60 15.97
O -9.82 -12.36 17.31
C -9.99 -11.02 17.69
C 5.99 -0.83 -1.09
O 5.76 -1.43 0.12
C 5.95 -2.82 0.09
C 4.79 -3.62 -0.55
O 4.79 -3.46 -1.99
C 3.67 -4.14 -2.48
C -10.20 -8.58 -2.41
O -9.78 -9.37 -3.58
C -8.90 -10.47 -3.42
C -8.27 -10.62 -4.82
O -7.63 -9.43 -5.18
C -6.53 -9.62 -6.11
C -11.67 -16.26 2.17
O -10.69 -15.42 1.62
C -11.00 -14.81 0.37
C -10.00 -13.76 -0.08
O -8.73 -14.40 -0.18
C -7.67 -13.51 -0.40
C -6.59 4.81 -1.31
O -6.46 4.97 -2.69
C -5.68 6.10 -3.09
C -5.92 6.31 -4.59
O -7.26 6.59 -4.87
C -7.77 7.89 -4.53
C -1.86 2.81 12.08
O -2.23 4.16 11.86
C -3.10 4.38 10.77
C -2.54 4.14 9.35
O -3.65 4.17 8.47
C -3.26 3.99 7.12
C -4.97 9.82 -1.77
O -3.88 8.98 -1.94
C -3.18 8.67 -0.68
C -2.19 7.60 -0.96
O -2.80 6.29 -0.97
C -1.95 5.20 -1.37
C -0.96 12.37 9.78
O -0.22 11.55 10.64
C 1.21 11.61 10.59
C 1.82 10.94 11.88
O 1.66 9.49 11.78
C 2.35 8.76 10.82
C 12.63 12.47 -15.43
O 12.22 12.95 -14.14
C 10.90 12.54 -13.90
C 10.86 11.02 -13.51
O 11.50 10.77 -12.34
C 11.31 9.48 -11.85
C 9.48 -8.35 -8.50
O 9.08 -7.89 -9.73
C 8.77 -8.87 -10.70
C 7.50 -9.81 -10.42
O 6.24 -9.07 -10.21
C 5.10 -9.76 -10.67
C -6.25 -7.39 -2.32
O -7.42 -7.10 -2.97
C -7.42 -5.75 -3.46
C -8.60 -5.65 -4.55
O -8.33 -6.66 -5.56
C -7.46 -6.05 -6.55
C 15.91 -0.22 11.51
O 16.16 -0.23 10.17
C 16.16 1.07 9.67
C 17.38 1.43 8.81
O 18.47 1.91 9.62
C 19.34 2.73 8.92
C -13.41 6.07 -10.78
O -12.19 6.62 -10.26
C -11.29 5.52 -9.94
C -10.10 6.18 -9.35
O -9.57 7.01 -10.41
C -8.96 8.12 -9.91
C -16.80 -10.13 0.02
O -17.53 -9.41 -1.01
C -17.27 -8.14 -1.32
C -15.77 -7.93 -1.90
O -15.61 -8.72 -3.04
C -16.10 -8.19 -4.20
C 10.47 2.30 -12.25
O 9.54 1.22 -12.21
C 10.11 0.06 -12.77
C 9.18 -1.19 -12.66
O 7.88 -0.92 -13.12
C 7.11 -2.11 -13.36
C 13.76 10.97 9.61
O 12.54 10.36 9.37
C 12.26 9.05 9.83
C 13.02 8.10 8.88
O 12.85 8.50 7.53
C 11.57 8.01 7.07
C -12.24 11.37 2.64
O -13.16 10.43 2.14
C -14.55 10.71 2.16
C -15.27 9.43 1.95
O -15.04 8.77 0.73
C -16.12 7.94 0.42
C -18.03 4.91 13.67
O -17.99 3.55 13.48
C -16.82 3.16 12.76
C -15.65 2.60 13.74
O -16.26 1.65 14.68
C -15.88 0.29 14.37
C 6.47 18.42 -14.94
O 6.65 17.92 -16.22
C 5.59 18.23 -17.14
C 5.94 17.75 -18.66
O 6.71 16.56 -18.66
C 5.74 15.49 -18.52
C -5.78 13.33 3.83
O -5.22 12.85 4.99
C -3.93 13.27 5.23
C -3.90 14.74 5.79
O -4.19 14.76 7.13
C -3.92 16.01 7.76
C -0.19 2.04 0.98
O 0.84 2.73 0.25
C 1.60 1.70 -0.43
C 2.71 2.27 -1.40
O 2.18 2.80 -2.59
C 2.08 4.19 -2.36
C -3.44 -4.46 6.45
O -2.60 -5.52 6.85
C -3.36 -6.68 7.12
C -3.74 -6.76 8.66
O -2.56 -6.52 9.42
C -2.96 -6.39 10.76
C 4.11 10.50 -12.87
O 4.71 10.08 -11.66
C 5.37 11.15 -11.03
C 6.03 10.65 -9.72
O 7.20 9.86 -9.95
C 7.58 9.27 -8.69
C -13.95 -6.26 -15.95
O -14.81 -5.12 -16.10
C -14.90 -4.60 -17.44
C -16.18 -3.78 -17.55
O -16.17 -2.73 -16.62
C -17.47 -2.24 -16.41
C 2.18 4.45 -7.81
O 2.22 3.18 -8.40
C 1.50 3.24 -9.62
C 1.50 1.89 -10.31
O 0.44 1.03 -9.97
C 0.37 0.64 -8.62
C -16.65 5.98 9.82
O -16.60 6.84 10.96
C -16.85 8.20 10.75
C -15.64 8.99 10.09
O -14.53 8.86 10.95
C -13.74 10.01 11.09
C 11.87 -0.86 11.46
O 11.02 0.20 11.78
C 11.47 1.24 10.96
C 10.58 2.46 11.21
O 9.33 2.13 10.69
C 8.40 2.95 11.31
C 1.41 5.48 12.45
O 1.23 4.49 11.43
C 1.11 5.08 10.13
C 0.98 4.00 9.01
O 2.24 3.42 8.68
C 2.17 2.02 8.68
C 2.59 -7.74 -6.88
O 3.95 -7.41 -6.67
C 3.98 -6.80 -5.40
C 5.41 -6.68 -4.75
O 6.08 -5.54 -5.20
C 6.67 -5.68 -6.48
C -6.82 -2.74 4.85
O -6.79 -1.35 5.09
C -7.01 -0.91 6.46
C -7.11 0.62 6.48
O -5.88 1.15 5.99
C -4.76 0.87 6.74
C -1.89 -14.30 2.96
O -2.94 -13.38 3.21
C -3.05 -12.96 4.58
C -1.99 -11.90 4.92
O -2.14 -10.66 4.24
C -3.26 -9.97 4.67
C 14.99 13.30 12.49
O 15.64 12.12 11.94
C 16.40 11.36 12.88
C 15.48 10.75 13.99
O 14.32 10.17 13.40
C 13.49 9.68 14.45
C -3.79 14.93 -2.58
O -4.11 15.93 -3.47
C -3.15 17.00 -3.52
C -2.87 17.72 -2.18
O -3.92 18.54 -1.63
C -5.12 17.95 -1.23
C 14.41 -0.96 -5.09
O 13.56 -1.55 -4.18
C 12.87 -0.57 -3.47
C 11.86 -1.23 -2.52
O 12.42 -2.04 -1.52
C 11.62 -2.76 -0.63
C 4.61 1.98 1.78
O 5.85 2.27 2.32
C 6.70 1.18 2.65
C 8.07 1.20 1.98
O 8.80 2.28 2.54
C 10.04 2.28 1.90
C 10.83 6.71 11.95
O 9.70 7.18 11.28
C 8.65 7.66 12.08
C 7.68 6.64 12.68
O 6.80 6.08 11.70
C 5.77 5.32 12.22
C 9.16 -13.33 -8.34
O 8.73 -13.34 -6.98
C 7.30 -13.66 -6.91
C 6.39 -12.39 -7.23
O 6.81 -11.32 -6.42
C 6.09 -10.10 -6.57
C 4.65 6.74 -15.41
O 4.36 7.36 -16.59
C 5.38 8.14 -17.18
C 5.22 9.57 -16.66
O 3.86 9.96 -16.77
C 3.76 11.36 -17.00
C 6.14 3.04 -5.52
O 6.35 2.06 -6.45
C 5.43 2.22 -7.51
C 6.07 3.02 -8.58
O 6.60 4.23 -8.08
C 8.03 4.28 -8.10
C -8.75 13.68 -4.32
O -8.44 14.38 -5.52
C -9.05 15.67 -5.71
C -8.67 16.15 -7.12
O -9.15 15.23 -8.10
C -8.19 14.80 -9.02
C 11.56 -9.70 -17.50
O 10.87 -9.75 -16.23
C 9.81 -8.84 -16.02
C 9.32 -8.99 -14.57
O 8.72 -10.30 -14.42
C 7.33 -10.21 -14.18
C -10.39 -5.65 -0.66
O -11.04 -6.10 0.53
C -10.41 -5.58 1.67
C -11.25 -5.82 2.85
O -12.59 -5.37 2.72
C -12.88 -4.05 3.17
C -7.11 -11.92 11.14
O -5.96 -12.36 10.40
C -6.12 -12.22 8.96
C -4.78 -12.64 8.35
O -3.73 -11.91 9.00
C -3.76 -10.52 8.88
C -6.31 -11.87 -11.21
O -5.60 -13.08 -11.00
C -5.85 -13.88 -12.10
C -4.53 -14.57 -12.43
O -4.24 -15.66 -11.53
C -3.35 -15.23 -10.47
C -12.82 7.44 -6.66
O -13.63 6.72 -5.80
C -14.14 5.57 -6.52
C -14.93 4.67 -5.44
O -16.05 5.44 -4.96
C -16.51 4.97 -3.71
C -13.94 11.63 -6.87
O -14.89 12.33 -6.15
C -14.43 13.41 -5.35
C -15.58 14.17 -4.83
O -16.30 14.86 -5.79
C -15.67 15.89 -6.46
C 12.08 15.30 -10.87
O 12.92 14.68 -9.89
C 14.25 14.42 -10.47
C 15.09 15.64 -10.61
O 15.23 16.36 -9.45
C 16.02 15.84 -8.42
C -7.99 1.90 -4.24
O -9.02 2.70 -4.84
C -8.54 4.02 -4.98
C -9.59 4.85 -5.81
O -10.84 4.81 -5.16
C -10.75 5.47 -3.91
C 3.86 -1.89 -9.89
O 4.73 -2.69 -9.11
C 5.55 -3.59 -9.77
C 4.85 -4.39 -10.93
O 3.71 -5.00 -10.42
C 3.80 -6.28 -9.92
C -0.41 -15.31 -4.78
O -1.61 -15.13 -5.48
C -1.73 -13.70 -5.60
C -3.15 -13.37 -6.17
O -3.19 -13.41 -7.61
C -2.64 -12.27 -8.16
C -1.51 -6.08 -9.57
O -1.73 -7.46 -9.14
C -0.74 -7.97 -8.26
C -1.22 -9.23 -7.52
O -2.56 -9.11 -7.05
C -2.68 -8.14 -6.06
C 16.62 -5.12 -5.22
O 15.55 -5.52 -6.10
C 14.67 -4.47 -6.31
C 14.93 -3.86 -7.59
O 15.02 -4.80 -8.68
C 15.65 -4.24 -9.77
C 8.93 -13.91 3.33
O 8.19 -15.06 3.56
C 6.81 -14.82 3.73
C 6.14 -16.18 3.93
O 6.21 -16.95 2.78
C 5.65 -18.24 2.92
C 11.07 -3.02 -8.88
O 9.78 -3.15 -9.49
C 9.54 -4.46 -10.07
C 10.36 -4.64 -11.30
O 11.76 -4.45 -11.13
C 12.45 -4.43 -12.38
C -1.79 11.59 14.73
O -2.29 12.84 14.87
C -1.57 13.77 15.67
C -1.73 15.29 15.24
O -3.03 15.80 15.40
C -3.72 15.55 14.22
C -10.40 -4.88 -10.26
O -10.34 -4.23 -11.45
C -9.04 -3.91 -11.70
C -8.95 -3.46 -13.19
O -9.03 -4.63 -13.99
C -9.13 -4.16 -15.32
C -9.74 9.02 16.81
O -8.56 8.67 16.17
C -8.72 7.60 15.31
C -8.76 6.23 16.11
O -7.70 6.09 16.96
C -8.01 5.95 18.29
C 9.31 2.03 -15.76
O 7.98 1.75 -15.39
C 7.10 2.88 -15.33
C 5.85 2.44 -14.53
O 6.22 1.95 -13.25
C 6.67 3.02 -12.48
C 4.91 1.69 10.83
O 3.81 1.16 11.49
C 3.18 2.29 12.10
C 1.96 1.71 12.79
O 2.28 0.66 13.67
C 2.99 1.03 14.83
C 13.36 14.31 -5.81
O 13.25 15.41 -6.59
C 11.98 16.05 -6.43
C 12.11 17.48 -6.93
O 12.63 17.50 -8.26
C 13.13 18.75 -8.74
C 18.31 -1.10 -12.17
O 17.15 -0.51 -11.68
C 16.20 -0.25 -12.69
C 16.31 1.24 -13.07
O 16.04 1.93 -11.91
C 14.75 2.50 -11.85
C -3.06 -12.73 12.14
O -1.68 -12.96 12.39
C -0.89 -12.58 11.29
C -0.63 -11.01 11.47
O -0.23 -10.69 12.79
C 0.18 -9.38 12.76
C 0.54 13.97 -2.86
O 0.38 13.31 -4.07
C -0.88 12.73 -4.26
C -1.51 11.71 -3.22
O -0.68 10.70 -2.70
C -0.15 9.82 -3.68
C -15.28 12.42 -13.56
O -14.00 12.49 -12.83
C -13.87 11.45 -11.90
C -12.53 11.65 -11.20
O -11.45 11.53 -12.10
C -10.28 12.06 -11.42
C 6.15 -11.42 17.32
O 5.11 -10.40 17.29
C 4.15 -10.71 16.28
C 2.90 -9.75 16.20
O 1.97 -9.86 17.24
C 1.16 -11.02 17.05
C 12.73 -4.67 12.41
O 11.60 -5.35 12.97
C 10.57 -4.37 13.30
C 10.91 -3.54 14.60
O 12.02 -2.69 14.35
C 11.70 -1.40 14.66
C 9.81 -10.62 -5.66
O 11.01 -10.70 -4.87
C 12.00 -9.86 -5.39
C 11.81 -8.38 -4.80
O 11.97 -8.50 -3.40
C 13.24 -8.59 -2.95
C -15.46 -6.23 -7.69
O -16.60 -6.20 -8.53
C -16.73 -7.31 -9.39
C -17.42 -8.55 -8.61
O -18.54 -8.07 -7.94
C -19.06 -9.07 -7.09
C -13.77 12.16 -16.49
O -15.15 12.05 -16.59
C -15.54 12.56 -17.88
C -17.08 12.55 -17.93
O -17.42 11.27 -17.37
C -18.82 10.99 -17.20
C 18.19 -11.31 -18.16
O 16.91 -11.31 -17.49
C 16.45 -10.01 -17.08
C 17.24 -9.44 -15.93
O 17.28 -10.52 -14.97
C 17.94 -10.25 -13.73
C -2.32 -13.24 -0.40
O -2.70 -12.00 -0.98
C -3.54 -11.10 -0.25
C -2.63 -10.34 0.81
O -1.70 -9.67 0.04
C -0.92 -8.82 0.89
C 0.66 -4.32 -12.15
O 1.37 -3.67 -13.21
C 0.67 -2.50 -13.56
C 1.39 -1.53 -14.51
O 2.29 -0.71 -13.78
C 3.52 -1.38 -13.73
C 12.95 -14.84 16.96
O 11.57 -14.53 16.83
C 11.10 -13.43 17.58
C 9.55 -13.27 17.36
O 9.23 -12.60 16.17
C 9.21 -13.44 15.00
C -12.19 2.38 7.76
O -12.46 2.06 9.11
C -12.35 0.66 9.43
C -12.97 0.37 10.76
O -12.11 1.05 11.70
C -12.37 0.51 12.98
C 14.76 -11.22 14.40
O 14.85 -12.36 13.51
C 15.62 -12.12 12.34
C 14.80 -11.96 11.13
O 14.25 -13.15 10.84
C 14.99 -14.07 10.02
C 12.33 -11.32 -0.78
O 11.20 -11.17 -1.60
C 10.01 -11.32 -0.87
C 8.80 -11.09 -1.78
O 9.06 -9.85 -2.42
C 7.88 -9.34 -2.96
C -14.46 14.87 6.24
O -15.66 14.52 5.57
C -16.01 13.16 5.64
C -16.41 12.76 7.17
O -17.53 13.54 7.47
C -18.01 13.22 8.73
C -3.54 -6.62 14.59
O -4.69 -5.82 14.98
C -4.89 -5.49 16.33
C -5.07 -6.79 17.21
O -6.27 -7.44 16.95
C -6.41 -8.61 17.74
C 4.32 -14.00 -4.56
O 3.79 -14.15 -5.84
C 3.33 -15.48 -6.09
C 4.41 -16.45 -6.58
O 5.12 -16.03 -7.75
C 4.25 -16.04 -8.84
C -14.28 -11.68 7.97
O -13.79 -10.36 8.08
C -12.54 -10.14 7.61
C -12.20 -8.68 7.45
O -13.10 -8.12 6.42
C -12.71 -6.82 6.03
C -7.30 -2.04 14.94
O -7.28 -2.26 13.52
C -6.28 -3.25 13.26
C -4.80 -2.85 13.36
O -4.58 -1.63 12.62
C -3.20 -1.33 12.65
C 9.47 -10.32 2.87
O 10.66 -11.03 2.67
C 11.56 -10.71 3.74
C 12.96 -11.12 3.38
O 13.49 -10.10 2.49
C 14.86 -10.32 2.48
C 11.21 12.67 1.50
O 11.09 11.34 2.01
C 12.13 10.48 1.57
C 11.53 9.67 0.42
O 11.52 10.37 -0.83
C 12.71 10.24 -1.54
C 9.13 12.76 -8.90
O 9.01 14.09 -9.51
C 7.95 14.18 -10.48
C 6.76 14.83 -9.77
O 6.16 13.80 -8.96
C 5.54 14.56 -7.97
C 0.50 -8.43 5.14
O 1.48 -8.68 4.19
C 1.48 -10.03 3.77
C 2.73 -10.46 3.09
O 3.76 -10.58 4.05
C 5.06 -10.98 3.45
C 19.25 16.24 -11.14
O 18.27 15.60 -11.89
C 18.27 16.12 -13.20
C 17.02 15.67 -13.96
O 15.88 16.49 -13.61
C 14.83 16.06 -14.42
C -1.69 -2.58 -0.50
O -1.85 -3.09 0.85
C -3.14 -3.45 1.17
C -3.34 -3.84 2.65
O -2.63 -4.99 3.02
C -3.20 -6.26 2.65
C 10.05 12.38 7.27
O 10.56 11.20 6.67
C 11.11 11.36 5.36
C 12.57 12.03 5.33
O 13.38 11.17 6.08
C 14.76 11.49 5.97
C 1.14 13.51 6.96
O 0.68 14.90 6.90
C 0.37 15.14 5.55
C 0.03 16.65 5.46
O -0.99 17.01 6.38
C -1.43 18.34 6.12
C 8.36 14.90 -1.80
O 8.73 13.57 -2.09
C 10.16 13.33 -2.03
C 10.89 13.69 -3.37
O 10.51 12.65 -4.29
C 9.55 13.12 -5.24
C 17.47 6.51 -9.81
O 16.70 7.66 -9.69
C 15.31 7.53 -10.03
C 14.93 8.92 -10.62
O 15.81 9.22 -11.67
C 15.49 10.20 -12.63
C -6.46 5.55 -8.51
O -7.31 4.51 -8.02
C -7.46 3.38 -8.88
C -7.61 2.18 -7.96
O -6.41 1.81 -7.24
C -5.49 1.11 -8.03
C 7.65 -17.08 12.88
O 6.74 -17.11 11.81
C 5.45 -16.51 12.14
C 5.55 -14.92 12.32
O 6.25 -14.40 11.21
C 6.21 -12.96 11.43
C 3.55 -5.44 3.99
O 4.24 -4.36 3.32
C 5.47 -4.00 3.90
C 5.36 -2.59 4.47
O 4.39 -2.65 5.47
C 4.89 -3.28 6.62
C 0.76 17.51 -1.84
O 1.72 17.86 -0.87
C 2.23 16.88 -0.01
C 1.32 16.62 1.19
O 0.22 15.77 0.93
C -1.08 16.23 1.40
C -15.85 -0.77 2.80
O -14.88 -1.62 3.31
C -14.33 -1.18 4.48
C -13.05 -0.33 4.24
O -12.02 -1.16 3.80
C -10.79 -0.84 4.26
C -19.77 -14.75 0.62
O -18.56 -15.38 0.34
C -17.52 -14.68 -0.40
C -16.33 -15.54 -0.54
O -16.42 -16.38 -1.73
C -15.62 -15.81 -2.78
C 5.27 4.73 8.15
O 6.54 5.37 8.28
C 6.44 6.80 8.34
C 7.86 7.32 8.47
O 8.63 7.05 7.32
C 8.44 7.79 6.15
C -12.18 11.85 13.93
O -12.42 12.66 15.03
C -12.38 13.99 14.76
C -10.97 14.43 14.74
O -10.85 15.78 14.32
C -11.12 16.80 15.30
C 4.04 17.16 6.41
O 5.01 16.66 7.33
C 4.89 15.28 7.78
C 5.06 14.34 6.60
O 6.29 14.67 5.99
C 6.64 13.83 4.95
C -9.02 -5.85 16.23
O -8.35 -5.91 14.98
C -8.82 -7.06 14.27
C -7.91 -7.35 13.17
O -6.77 -7.94 13.62
C -6.00 -8.52 12.58
C 6.14 7.01 -5.16
O 6.65 8.28 -4.96
C 5.77 9.39 -4.70
C 5.19 9.52 -3.30
O 6.30 9.32 -2.42
C 7.14 10.47 -2.40
C 2.73 -14.98 9.68
O 2.29 -16.32 9.73
C 1.22 -16.66 8.88
C -0.08 -16.26 9.53
O -0.27 -16.99 10.73
C -0.61 -18.42 10.64
C 2.41 8.26 14.89
O 2.01 7.84 16.16
C 0.62 7.93 16.35
C 0.21 7.60 17.77
O 0.76 8.52 18.65
C 0.07 8.56 19.91
C 0.12 -9.18 -3.41
O -0.60 -7.98 -3.48
C -1.71 -7.91 -2.63
C -2.30 -6.49 -2.60
O -3.14 -6.21 -3.70
C -3.77 -4.92 -3.69
C 16.15 3.64 -6.45
O 15.49 4.70 -7.10
C 15.03 5.60 -6.06
C 13.83 5.00 -5.33
O 12.84 4.42 -6.15
C 12.12 3.51 -5.39
C 12.62 -14.48 -4.44
O 11.80 -15.49 -3.92
C 10.51 -14.90 -3.89
C 9.61 -15.97 -3.36
O 9.37 -16.88 -4.42
C 8.37 -16.38 -5.29
C -2.23 -2.17 -10.70
O -3.10 -1.19 -10.31
C -2.79 0.16 -10.68
C -3.52 0.50 -12.00
O -2.81 -0.05 -13.14
C -1.74 0.82 -13.43
C 10.94 7.68 -7.22
O 11.40 8.08 -5.93
C 11.61 9.50 -5.92
C 13.12 9.84 -6.10
O 13.28 9.80 -7.55
C 12.78 10.93 -8.22
C 12.31 -6.43 2.44
O 11.22 -6.94 1.66
C 11.65 -7.05 0.35
C 10.40 -7.02 -0.57
O 9.60 -5.89 -0.22
C 8.50 -5.62 -1.13
C -7.12 -8.17 -9.89
O -6.04 -7.25 -10.04
C -4.73 -7.69 -9.91
C -4.19 -8.32 -11.13
O -4.06 -7.42 -12.21
C -3.47 -8.03 -13.35
C -9.93 0.18 -16.05
O -9.60 1.49 -16.46
C -8.38 1.58 -17.16
C -7.29 1.89 -16.19
O -7.10 0.65 -15.48
C -5.90 0.70 -14.77
C -16.72 -5.24 4.84
O -16.08 -4.86 3.64
C -16.91 -4.57 2.51
C -16.08 -4.25 1.22
O -15.15 -5.27 0.97
C -14.32 -4.97 -0.11
C -10.58 -8.23 -7.86
O -11.72 -8.94 -7.63
C -12.49 -8.39 -6.58
C -12.88 -9.57 -5.64
O -13.70 -10.41 -6.48
C -14.39 -11.46 -5.86
C -12.77 6.83 3.50
O -12.97 6.56 2.17
C -11.85 5.98 1.58
C -11.86 6.32 0.14
O -11.96 7.72 -0.05
C -10.79 8.48 0.22
C -7.08 4.03 9.05
O -7.83 5.15 8.75
C -9.10 5.07 9.48
C -9.94 6.30 9.23
O -9.21 7.35 9.86
C -9.34 8.61 9.19
C -5.23 7.43 6.97
O -5.83 7.66 8.21
C -4.95 8.38 9.06
C -5.57 8.35 10.43
O -5.89 7.01 10.80
C -6.64 6.93 12.00
C -13.53 -6.42 10.24
O -12.78 -5.59 11.08
C -11.40 -5.73 10.78
C -10.64 -4.55 11.47
O -10.89 -4.81 12.85
C -10.31 -3.78 13.63
C -12.90 -16.55 7.55
O -12.83 -15.19 7.11
C -12.03 -15.12 5.92
C -11.94 -13.75 5.38
O -13.16 -13.49 4.80
C -13.09 -12.28 4.08
C -10.36 -14.18 -4.80
O -8.98 -13.89 -4.61
C -7.99 -14.92 -4.42
C -6.58 -14.29 -4.56
O -6.40 -13.50 -3.41
C -5.07 -13.09 -3.22
C -6.83 -7.74 1.37
O -7.81 -8.21 0.47
C -8.27 -9.55 0.71
C -9.47 -9.60 1.71
O -10.60 -8.91 1.15
C -11.83 -9.33 1.66
C -16.69 -1.55 -7.55
O -15.35 -1.24 -7.11
C -14.41 -2.35 -7.12
C -13.96 -2.82 -8.45
O -13.43 -1.70 -9.09
C -12.41 -2.18 -9.95
C -14.02 5.50 -18.64
O -14.04 5.25 -17.29
C -14.91 6.03 -16.54
C -16.37 5.82 -17.04
O -16.83 4.56 -16.58
C -16.80 3.56 -17.64
C 7.01 0.88 7.04
O 7.90 0.11 6.23
C 8.74 -0.77 6.98
C 9.75 -0.01 7.95
O 10.83 0.64 7.25
C 11.67 -0.19 6.42
C -18.15 -13.87 -14.35
O -17.84 -14.09 -15.74
C -16.64 -14.90 -15.93
C -15.36 -14.24 -15.45
O -15.30 -12.98 -16.05
C -14.19 -12.16 -15.69
C -3.67 8.45 -10.75
O -2.40 8.17 -11.34
C -1.69 7.13 -10.66
C -0.21 6.99 -11.08
O 0.62 7.88 -10.41
C 1.97 7.72 -10.87
C 12.58 4.79 14.63
O 13.70 4.31 15.21
C 13.37 3.23 16.09
C 13.26 1.87 15.30
O 14.45 1.46 14.63
C 15.53 0.92 15.37
C 17.70 15.61 -1.12
O 17.14 14.47 -0.41
C 17.89 14.26 0.77
C 17.32 12.96 1.50
O 17.60 11.75 0.78
C 16.44 11.44 0.03
C 2.68 0.74 -5.62
O 3.30 -0.46 -5.06
C 3.38 -1.53 -5.96
C 2.02 -2.14 -6.44
O 1.65 -3.02 -5.39
C 0.27 -3.39 -5.41
C -13.94 1.61 -17.60
O -14.43 1.99 -16.35
C -13.42 1.99 -15.38
C -13.95 2.35 -14.01
O -14.77 3.51 -14.15
C -15.88 3.72 -13.21
C -3.68 1.68 15.82
O -4.24 1.57 14.51
C -5.63 1.96 14.42
C -5.84 3.13 13.50
O -4.91 4.22 13.59
C -5.09 5.08 14.64
C -7.42 10.55 1.47
O -7.09 9.31 2.05
C -7.50 9.16 3.38
C -7.50 7.62 3.65
O -8.28 6.92 2.69
C -7.70 6.48 1.50
C 3.58 12.45 -5.33
O 4.94 12.67 -4.82
C 5.02 13.74 -3.82
C 5.25 15.11 -4.35
O 4.03 15.62 -5.02
C 3.08 16.12 -4.12
C 13.78 15.06 0.47
O 13.94 15.63 -0.82
C 14.26 16.95 -0.66
C 14.40 17.46 -2.10
O 15.42 16.68 -2.79
C 15.73 17.35 -4.01