1680
step 0
P 4.62 14.79 -4.80
O 5.31 13.56 -5.26
O 3.42 14.78 -3.91
F 4.23 15.71 -6.06
F 5.70 15.79 -4.13
P -8.14 -1.24 -10.00
O -7.42 -2.56 -10.26
O -8.82 -0.75 -8.72
F -9.17 -1.00 -11.20
F -7.17 -0.08 -10.41
P -14.19 -3.08 -3.77
O -13.27 -4.23 -3.61
O -15.63 -3.06 -3.44
F -14.08 -2.60 -5.29
F -13.46 -1.78 -3.21
P -6.62 15.03 13.46
O -6.04 16.17 12.66
O -7.68 15.06 14.51
F -5.41 14.24 14.11
F -6.99 13.85 12.43
P -13.52 2.25 -13.96
O -12.20 2.93 -13.83
O -14.53 2.06 -12.86
F -13.41 0.90 -14.80
F -14.25 2.99 -15.20
P -16.65 -14.06 -16.59
O -17.65 -14.58 -15.63
O -16.82 -12.94 -17.54
F -16.01 -15.30 -17.44
F -15.29 -13.70 -15.77
P -15.27 3.94 11.26
O -15.61 5.36 11.60
O -16.14 2.88 10.61
F -14.83 3.26 12.66
F -13.89 3.94 10.48
P 11.87 -9.35 13.87
O 12.09 -8.37 12.73
O 10.55 -9.87 14.32
F 12.62 -8.76 15.18
F 12.90 -10.52 13.67
P 0.75 -13.58 -8.79
O -0.53 -14.20 -9.26
O 2.04 -14.32 -8.57
F 0.43 -12.83 -7.38
F 1.02 -12.24 -9.64
P 15.92 12.71 -3.58
O 15.63 14.10 -3.98
O 17.03 11.87 -3.99
F 14.64 11.83 -3.91
F 15.82 12.56 -1.97
P -15.79 2.14 -8.61
O -15.71 1.09 -7.58
O -16.32 2.03 -10.01
F -14.32 2.79 -8.73
F -16.50 3.44 -8.00
P -5.33 -8.36 3.09
O -6.44 -9.18 2.62
O -4.62 -8.49 4.39
F -5.77 -6.80 2.89
F -4.14 -8.37 1.99
P -14.35 -10.39 15.64
O -14.10 -10.83 17.01
O -15.61 -10.62 14.86
F -13.08 -10.88 14.76
F -13.88 -8.85 15.55
P -13.65 8.86 -2.43
O -13.83 7.76 -3.43
O -12.58 9.90 -2.39
F -13.70 8.12 -1.01
F -15.08 9.54 -2.15
P -8.46 5.33 -15.78
O -9.65 5.56 -16.62
O -7.30 4.47 -16.12
F -8.97 4.76 -14.36
F -7.91 6.73 -15.18
P 9.53 16.66 -16.67
O 10.33 17.73 -17.36
O 9.98 16.03 -15.43
F 9.25 15.53 -17.76
F 8.02 17.22 -16.48
P 1.61 -16.92 9.18
O 0.52 -17.30 8.23
O 2.25 -15.56 9.21
F 2.83 -17.95 9.00
F 1.26 -17.36 10.69
P -4.71 -15.57 -9.79
O -3.67 -15.27 -10.80
O -4.59 -16.66 -8.80
F -6.16 -15.63 -10.47
F -4.99 -14.24 -8.92
P 3.00 -11.99 -15.42
O 2.21 -12.98 -16.19
O 3.54 -12.07 -14.04
F 2.28 -10.54 -15.58
F 4.21 -11.65 -16.41
P -15.74 14.20 5.34
O -14.99 13.32 6.28
O -16.09 13.85 3.92
F -14.78 15.54 5.26
F -17.03 14.81 6.03
P 1.44 15.99 -0.27
O 1.43 16.67 1.04
O 2.61 15.32 -0.92
F 0.80 16.96 -1.40
F 0.25 14.92 -0.29
P -9.13 -10.21 -10.31
O -9.55 -9.65 -11.62
O -8.47 -11.52 -10.19
F -10.36 -10.17 -9.28
F -8.28 -9.13 -9.50
P 4.65 -14.26 2.09
O 5.13 -13.46 0.91
O 3.63 -15.35 2.04
F 4.26 -13.29 3.29
F 5.94 -14.87 2.79
P -17.06 1.29 3.06
O -18.14 1.91 3.88
O -15.61 1.64 3.08
F -17.42 1.38 1.47
F -17.27 -0.30 3.08
P -0.37 -14.10 15.97
O -0.31 -14.83 17.25
O 0.46 -14.43 14.74
F -0.16 -12.54 16.35
F -1.89 -13.96 15.52
P -4.75 -8.57 8.31
O -6.14 -8.25 8.75
O -4.29 -9.75 7.52
F -3.76 -8.32 9.53
F -4.16 -7.35 7.43
P 8.52 -8.16 11.43
O 9.92 -8.01 10.96
O 7.26 -8.10 10.59
F 8.40 -7.25 12.79
F 8.45 -9.55 12.22
P -2.25 -7.88 -10.20
O -2.16 -8.52 -8.85
O -1.92 -6.47 -10.50
F -3.64 -8.18 -10.90
F -1.42 -8.78 -11.18
P -10.14 1.11 8.06
O -9.17 1.02 6.93
O -10.18 2.22 9.01
F -10.05 -0.26 8.87
F -11.61 0.84 7.55
P -9.63 -11.69 0.04
O -9.41 -12.47 -1.21
O -8.58 -10.87 0.74
F -10.40 -12.64 1.11
F -10.91 -10.78 -0.22
P 2.74 11.06 -2.92
O 2.85 12.31 -2.05
O 1.56 10.14 -2.94
F 4.06 10.19 -2.71
F 3.17 11.52 -4.40
P 8.30 13.38 7.59
O 7.13 14.10 7.03
O 9.29 12.54 6.87
F 7.72 12.45 8.79
F 9.11 14.38 8.54
P 14.46 -14.23 8.80
O 15.62 -15.15 8.51
O 13.08 -14.74 9.12
F 14.25 -13.19 7.61
F 14.91 -13.13 9.87
P 6.56 12.99 -1.44
O 8.05 13.09 -1.25
O 5.61 14.15 -1.30
F 5.96 11.77 -0.54
F 6.30 12.34 -2.88
P 6.96 -11.27 14.11
O 7.61 -10.15 14.91
O 7.60 -12.55 13.68
F 6.24 -10.68 12.85
F 5.72 -11.68 14.96
P 11.61 10.54 2.71
O 11.68 10.87 4.18
O 12.69 10.67 1.70
F 10.31 11.33 2.17
F 10.89 9.08 2.57
P -1.15 -6.60 4.91
O -1.59 -7.43 6.05
O -1.83 -6.50 3.60
F 0.43 -6.87 4.64
F -0.90 -5.13 5.50
P -9.15 1.72 -5.67
O -9.41 0.25 -5.74
O -7.93 2.43 -6.15
F -9.40 2.22 -4.19
F -10.35 2.53 -6.32
P -13.41 14.55 -12.35
O -11.96 14.80 -12.35
O -14.16 13.29 -12.02
F -14.03 15.05 -13.75
F -14.10 15.75 -11.44
P -1.64 -11.17 4.08
O -0.23 -11.37 4.49
O -2.60 -12.30 3.84
F -1.64 -10.25 2.77
F -2.34 -10.13 5.07
P -14.82 -13.14 9.71
O -15.51 -14.30 9.08
O -13.46 -13.06 10.28
F -15.78 -12.50 10.79
F -14.93 -11.96 8.65
P -4.20 -15.73 4.52
O -4.98 -14.94 5.50
O -3.99 -15.45 3.10
F -4.52 -17.28 4.66
F -2.73 -15.97 5.12
P 11.96 -5.95 8.27
O 12.59 -6.60 9.43
O 12.67 -4.91 7.46
F 10.51 -5.36 8.65
F 11.47 -7.04 7.18
P 4.22 7.34 5.98
O 3.52 6.02 6.06
O 3.79 8.51 6.78
F 4.30 7.76 4.45
F 5.79 7.07 6.28
P -11.09 4.78 -1.67
O -10.75 4.23 -3.01
O -12.41 5.24 -1.23
F -10.06 5.99 -1.36
F -10.55 3.76 -0.55
P -7.32 -16.84 -0.62
O -6.20 -16.38 0.24
O -8.20 -15.88 -1.35
F -8.17 -18.07 0.04
F -6.65 -17.69 -1.76
P 1.62 2.66 3.28
O 2.21 3.50 4.42
O 1.26 1.21 3.39
F 2.62 2.82 2.07
F 0.38 3.47 2.63
P 3.21 17.23 -16.40
O 4.64 16.97 -16.72
O 2.55 18.56 -16.34
F 2.87 16.35 -15.09
F 2.37 16.28 -17.41
P -12.22 11.91 8.38
O -11.14 12.25 9.39
O -12.06 11.87 6.93
F -13.46 12.84 8.66
F -13.01 10.59 8.81
P 14.57 -7.24 -8.79
O 13.51 -7.29 -9.81
O 14.80 -8.19 -7.67
F 14.61 -5.75 -8.26
F 15.97 -7.08 -9.57
P -15.01 -4.72 -9.78
O -15.03 -3.32 -9.30
O -16.12 -5.45 -10.47
F -14.40 -5.65 -8.60
F -13.76 -4.88 -10.75
P 7.57 -8.08 -11.66
O 6.46 -9.10 -11.69
O 8.73 -8.07 -12.57
F 8.05 -7.89 -10.14
F 6.89 -6.62 -11.73
P 6.60 -14.38 9.73
O 7.25 -13.80 10.94
O 5.20 -14.41 9.34
F 7.02 -15.88 9.70
F 7.51 -13.92 8.47
P -0.07 -7.84 -0.29
O 1.21 -7.09 -0.00
O -1.23 -7.86 0.66
F 0.31 -9.35 -0.62
F -0.60 -7.52 -1.78
P -11.78 -15.31 -3.92
O -10.86 -14.60 -3.00
O -11.40 -15.61 -5.34
F -13.22 -14.53 -3.88
F -12.37 -16.65 -3.28
P 14.91 -4.65 -2.27
O 15.97 -4.70 -3.33
O 14.65 -5.62 -1.18
F 13.51 -4.41 -3.04
F 14.94 -3.21 -1.59
P -2.42 -8.63 -4.38
O -3.09 -8.97 -5.69
O -2.79 -9.12 -3.02
F -2.34 -7.05 -4.27
F -0.85 -8.78 -4.58
P -5.56 3.38 12.19
O -4.28 2.79 11.72
O -5.95 4.77 12.52
F -6.07 2.43 13.33
F -6.66 2.82 11.14
P 9.71 -6.91 -17.22
O 9.54 -7.46 -18.60
O 9.67 -7.73 -16.00
F 8.73 -5.69 -16.97
F 10.99 -5.96 -17.17
P 14.36 -3.42 -10.74
O 15.72 -3.94 -10.45
O 13.10 -3.81 -10.01
F 14.11 -3.49 -12.36
F 14.50 -1.78 -10.77
P -16.39 4.16 -1.22
O -15.84 3.30 -0.17
O -15.79 5.48 -1.60
F -17.92 4.44 -0.88
F -16.68 3.27 -2.53
P 0.46 -15.83 -12.99
O -0.51 -15.70 -11.87
O 0.60 -14.87 -14.08
F 0.30 -17.28 -13.63
F 1.96 -16.03 -12.42
P -9.73 5.81 5.69
O -9.77 4.36 6.00
O -10.91 6.69 5.60
F -8.94 6.05 4.34
F -8.56 6.50 6.57
P 16.23 -5.32 -14.13
O 16.90 -5.76 -15.42
O 15.96 -6.23 -12.93
F 14.80 -4.68 -14.56
F 16.86 -3.97 -13.57
P -6.56 -12.39 -4.26
O -5.09 -12.25 -4.14
O -7.44 -13.45 -3.71
F -6.99 -12.26 -5.79
F -7.23 -10.99 -3.85
P 3.37 -0.10 14.42
O 2.84 -0.07 13.04
O 3.28 -1.26 15.35
F 2.82 1.19 15.19
F 4.90 0.42 14.37
P 5.85 -11.65 -2.71
O 6.18 -10.27 -2.26
O 6.63 -12.85 -2.30
F 5.61 -11.61 -4.26
F 4.31 -11.95 -2.39
P -0.19 9.61 9.05
O -0.57 10.42 10.24
O 1.03 9.75 8.20
F -1.44 9.57 8.09
F -0.28 8.04 9.40
P 10.98 12.64 16.29
O 11.15 13.71 15.25
O 11.65 11.32 16.36
F 9.42 12.42 16.42
F 11.23 13.33 17.71
P 7.23 13.62 -8.65
O 7.60 12.17 -8.68
O 5.93 14.23 -9.11
F 8.46 14.34 -9.38
F 7.59 14.21 -7.22
C -6.48 -2.58 -13.25
O -7.26 -3.70 -13.47
C -8.17 -3.57 -14.58
C -8.54 -5.00 -14.99
O -7.36 -5.70 -15.19
C -6.87 -5.43 -16.46
C 2.58 -11.57 14.57
O 1.50 -10.84 13.96
C 1.36 -9.58 14.53
C 0.33 -8.78 13.72
O -0.97 -9.35 13.79
C -2.01 -8.45 13.47
C -2.86 -14.07 -15.16
O -3.07 -12.67 -15.45
C -2.18 -12.02 -16.39
C -2.28 -10.52 -16.25
O -3.60 -10.16 -16.56
C -3.71 -9.61 -17.89
C 15.72 -9.71 -11.72
O 15.02 -10.93 -11.57
C 14.88 -11.30 -10.18
C 13.99 -12.52 -10.09
O 12.64 -12.30 -10.51
C 11.80 -11.58 -9.65
C -12.94 1.91 0.44
O -13.76 0.73 0.28
C -14.05 0.52 -1.06
C -15.09 -0.58 -1.05
O -16.27 -0.05 -0.49
C -17.11 -1.07 -0.24
C -12.93 12.19 11.95
O -12.26 11.58 13.06
C -11.02 11.08 12.56
C -9.80 11.68 13.27
O -10.09 11.47 14.63
C -8.92 11.80 15.31
C -12.60 -13.78 -18.48
O -11.95 -14.88 -17.86
C -12.26 -15.20 -16.56
C -11.80 -16.62 -16.24
O -12.33 -17.58 -17.16
C -11.83 -18.88 -16.96
C -11.43 -2.67 12.30
O -12.23 -1.90 13.14
C -13.46 -2.56 13.33
C -13.50 -3.03 14.80
O -12.51 -3.97 15.11
C -12.64 -5.25 14.64
C -5.12 10.99 13.50
O -5.63 10.11 14.53
C -4.70 9.88 15.56
C -4.59 11.05 16.54
O -3.77 12.12 15.97
C -2.44 12.16 16.47
C 4.33 6.68 13.88
O 4.42 7.47 12.63
C 3.18 8.03 12.33
C 2.16 6.96 11.73
O 2.76 6.10 10.83
C 2.99 6.73 9.53
C 12.51 -9.76 8.93
O 13.17 -9.54 10.12
C 14.54 -9.91 10.02
C 15.34 -9.16 11.06
O 15.20 -7.81 10.93
C 15.99 -7.26 9.89
C 9.71 5.44 15.71
O 8.60 6.18 15.44
C 8.30 6.20 14.04
C 8.97 7.44 13.32
O 8.25 8.61 13.47
C 8.51 9.32 14.70
C -14.52 9.87 5.04
O -15.13 9.85 6.32
C -16.48 9.49 6.46
C -16.79 9.86 7.88
O -16.41 11.18 8.18
C -16.84 11.46 9.49
C 2.10 4.11 -6.46
O 1.91 4.63 -7.79
C 0.54 4.55 -8.13
C 0.27 3.38 -9.16
O 0.49 2.10 -8.62
C -0.47 1.77 -7.59
C 13.74 -0.07 10.82
O 13.77 -0.51 12.13
C 12.53 -0.80 12.72
C 11.91 0.42 13.35
O 11.72 1.49 12.51
C 10.54 1.33 11.73
C 1.12 -4.09 13.42
O 2.16 -3.11 13.22
C 2.49 -2.96 11.90
C 4.00 -2.70 11.72
O 4.79 -3.89 11.68
C 6.16 -3.69 11.40
C -9.11 1.12 -14.55
O -8.00 1.73 -14.04
C -7.98 1.92 -12.63
C -6.55 2.11 -12.26
O -6.16 3.35 -12.77
C -4.75 3.54 -12.80
C -1.24 -12.26 -12.56
O -2.29 -12.84 -11.88
C -3.20 -12.00 -11.20
C -4.03 -11.18 -12.19
O -4.78 -11.95 -13.09
C -5.89 -12.52 -12.49
C 3.18 -3.00 -7.64
O 3.64 -1.79 -7.20
C 2.59 -0.92 -6.78
C 3.07 -0.11 -5.59
O 3.99 0.84 -6.08
C 4.55 1.59 -5.01
C -14.92 -9.56 10.51
O -14.38 -8.37 11.16
C -13.40 -8.71 12.20
C -12.15 -9.61 11.78
O -11.18 -9.05 10.90
C -10.55 -7.90 11.41
C 13.17 4.56 13.52
O 14.07 5.45 12.94
C 15.16 4.82 12.31
C 14.75 4.16 10.90
O 14.12 4.98 10.01
C 13.75 4.22 8.82
C -2.64 2.64 14.69
O -2.02 1.59 13.99
C -0.63 1.43 14.38
C -0.50 0.72 15.68
O -1.18 -0.55 15.67
C -0.65 -1.40 14.66
C 1.90 -4.75 -3.09
O 0.96 -3.92 -3.71
C -0.29 -4.53 -4.06
C -1.02 -3.48 -4.89
O -0.38 -3.26 -6.10
C -0.85 -2.09 -6.79
C -6.58 -0.79 17.04
O -6.69 -1.06 15.64
C -5.69 -0.36 14.84
C -5.62 -1.11 13.57
O -6.94 -1.26 12.94
C -7.23 -0.30 12.01
C -7.57 13.43 6.79
O -7.72 14.07 5.50
C -6.51 14.34 4.90
C -6.77 14.70 3.46
O -7.81 15.66 3.34
C -7.33 17.01 3.53
C -8.13 14.19 -6.43
O -7.01 13.88 -7.23
C -6.72 14.93 -8.12
C -7.79 15.49 -8.97
O -8.09 14.40 -9.83
C -9.34 14.72 -10.43
C 0.36 -7.93 -16.23
O -1.01 -7.63 -16.38
C -1.53 -6.75 -15.42
C -3.04 -6.45 -15.88
O -3.18 -6.11 -17.30
C -2.34 -5.09 -17.94
C 17.95 10.33 -10.69
O 16.61 9.93 -10.84
C 16.25 9.17 -11.99
C 14.73 9.00 -12.04
O 14.19 8.69 -10.76
C 14.57 7.40 -10.31
C -15.94 -9.97 -14.56
O -15.55 -11.30 -14.36
C -14.64 -11.37 -13.26
C -13.20 -11.01 -13.76
O -12.95 -11.94 -14.86
C -11.76 -11.56 -15.53
C 9.99 13.41 -4.91
O 9.60 14.36 -3.93
C 8.32 15.00 -4.18
C 8.49 16.24 -5.11
O 9.38 17.12 -4.49
C 9.32 18.44 -5.05
C -1.86 12.77 -8.73
O -1.45 14.13 -8.96
C -2.09 15.10 -8.16
C -1.50 16.52 -8.41
O -0.22 16.44 -7.85
C 0.38 17.69 -7.97
C 4.04 9.80 -10.65
O 3.39 10.36 -9.48
C 2.06 9.85 -9.50
C 1.39 9.99 -8.20
O 2.08 9.23 -7.31
C 1.70 7.90 -7.26
C -15.08 -7.19 -12.86
O -14.14 -8.23 -12.59
C -13.47 -7.91 -11.36
C -13.77 -8.92 -10.27
O -13.27 -10.21 -10.74
C -13.47 -11.18 -9.76
C 12.03 0.05 -10.84
O 10.94 0.86 -11.30
C 10.72 0.81 -12.71
C 9.42 1.58 -13.26
O 8.26 0.77 -13.18
C 7.97 0.42 -11.82
C 6.84 6.25 10.22
O 8.03 5.51 10.15
C 8.00 4.31 9.40
C 8.09 4.55 7.91
O 9.28 5.30 7.65
C 10.33 4.39 7.43
C 5.57 -17.12 6.66
O 5.06 -15.79 6.63
C 4.11 -15.62 5.58
C 3.43 -14.25 5.58
O 2.61 -14.22 6.73
C 2.18 -12.95 7.15
C -6.87 -17.25 7.57
O -7.84 -16.97 8.53
C -7.53 -17.75 9.70
C -8.59 -17.55 10.77
O -8.76 -16.31 11.39
C -7.56 -15.79 11.95
C 14.68 1.52 -7.95
O 14.14 2.83 -8.15
C 15.17 3.77 -8.44
C 15.51 4.57 -7.17
O 15.78 3.72 -6.06
C 16.27 4.31 -4.95
C -8.00 6.96 14.49
O -8.15 7.09 13.06
C -7.45 8.27 12.71
C -7.68 8.55 11.22
O -8.93 9.03 11.08
C -9.35 9.19 9.76
C -12.61 2.21 4.53
O -12.72 3.42 5.29
C -13.65 3.31 6.34
C -13.46 4.49 7.32
O -13.80 5.66 6.62
C -13.74 6.65 7.61
C 14.71 -8.47 6.13
O 15.78 -8.89 5.35
C 16.85 -7.95 5.54
C 18.01 -8.20 4.51
O 18.55 -9.51 4.60
C 19.73 -9.75 3.91
C 5.03 -8.85 -18.01
O 4.96 -7.87 -17.00
C 5.75 -7.97 -15.86
C 5.73 -6.62 -15.12
O 4.39 -6.33 -14.75
C 4.14 -5.11 -14.15
C -1.15 12.22 -12.37
O -1.16 11.17 -13.25
C -1.31 9.90 -12.63
C -2.68 9.27 -13.11
O -2.59 8.83 -14.45
C -2.45 7.50 -14.52
C 10.59 10.23 -1.79
O 10.76 11.49 -2.54
C 12.13 11.98 -2.40
C 12.30 12.92 -1.20
O 11.37 13.96 -1.50
C 11.92 15.11 -2.12
C -12.88 -1.20 -8.09
O -11.80 -1.66 -7.28
C -11.78 -3.06 -7.25
C -10.75 -3.49 -6.22
O -9.47 -3.07 -6.54
C -8.75 -3.91 -7.47
C 13.94 -8.01 1.32
O 13.39 -8.78 0.31
C 12.01 -9.03 0.40
C 11.23 -7.68 0.25
O 11.65 -7.18 -1.05
C 11.23 -5.87 -1.24
C -5.01 8.75 -5.03
O -6.25 9.35 -5.32
C -6.57 10.60 -4.76
C -7.02 10.38 -3.35
O -7.82 9.15 -3.22
C -9.15 9.31 -3.52
C 12.66 7.97 15.53
O 12.51 6.83 16.37
C 13.76 6.26 16.78
C 13.50 4.82 17.20
O 12.44 4.99 18.08
C 11.80 3.82 18.44
C 17.01 7.97 2.95
O 15.93 7.20 2.48
C 16.13 6.32 1.37
C 14.81 6.05 0.70
O 14.40 6.91 -0.37
C 14.01 8.12 0.25
C -1.83 -12.38 -3.71
O -0.66 -12.05 -3.02
C 0.33 -11.81 -4.02
C 1.66 -11.42 -3.26
O 1.58 -10.02 -3.10
C 2.62 -9.37 -2.45
C -5.20 18.08 -17.07
O -5.91 16.90 -16.83
C -5.20 15.84 -17.50
C -6.01 14.52 -17.48
O -6.12 14.17 -16.08
C -5.11 13.28 -15.73
C 11.73 -14.93 -7.63
O 13.00 -15.61 -7.46
C 12.99 -16.47 -6.28
C 12.36 -17.88 -6.43
O 13.14 -18.78 -7.18
C 12.30 -19.84 -7.58
C -16.13 -7.18 16.26
O -17.43 -6.79 15.73
C -17.72 -7.52 14.58
C -16.81 -7.08 13.45
O -16.83 -5.68 13.19
C -15.93 -5.26 12.18
C -0.78 12.32 2.13
O 0.47 11.61 2.16
C 1.35 12.28 1.23
C 2.60 11.43 1.00
O 3.22 11.22 2.30
C 4.48 10.58 2.15
C 7.41 9.11 -11.53
O 7.66 9.43 -12.92
C 7.07 10.65 -13.32
C 8.01 11.84 -12.85
O 9.30 11.45 -13.26
C 9.52 11.63 -14.68
C 10.05 -3.66 15.34
O 9.88 -3.11 14.06
C 9.72 -4.01 13.06
C 11.00 -4.76 12.72
O 12.06 -3.84 12.27
C 13.19 -4.60 11.87
C -16.30 6.11 -9.90
O -16.22 6.31 -11.32
C -16.07 5.12 -12.01
C -17.46 4.54 -12.46
O -18.01 5.43 -13.45
C -19.32 4.98 -13.82
C 5.98 -4.01 15.41
O 4.82 -4.43 14.72
C 4.48 -5.78 14.94
C 3.58 -5.79 16.18
O 2.61 -4.82 15.98
C 2.13 -4.37 17.20
C -6.68 -2.80 -4.09
O -6.16 -3.90 -3.43
C -4.90 -4.30 -3.86
C -4.90 -5.16 -5.07
O -5.53 -4.55 -6.18
C -4.50 -3.88 -6.89
C -10.25 -0.24 16.33
O -10.78 1.01 16.11
C -11.74 1.33 17.07
C -11.89 2.84 16.95
O -12.29 3.37 15.70
C -12.66 4.69 15.66
C 4.99 8.81 -17.18
O 4.19 7.68 -17.54
C 4.49 6.41 -17.04
C 4.33 6.22 -15.56
O 3.00 6.24 -15.16
C 2.82 5.96 -13.80
C 16.05 9.58 -7.37
O 15.28 10.46 -6.58
C 14.91 11.63 -7.34
C 13.65 11.38 -8.18
O 12.39 11.47 -7.46
C 11.31 11.41 -8.43
C -13.48 14.18 -3.58
O -14.53 14.03 -4.49
C -14.57 12.77 -5.06
C -15.31 12.87 -6.40
O -14.51 13.59 -7.34
C -15.27 13.89 -8.54
C -18.10 -16.04 -8.67
O -17.38 -16.08 -7.40
C -17.51 -17.35 -6.86
C -16.55 -17.45 -5.70
O -17.11 -16.67 -4.62
C -16.06 -16.51 -3.67
C 11.96 -11.14 -16.80
O 10.96 -11.93 -16.28
C 9.82 -12.12 -17.15
C 8.68 -11.25 -16.57
O 8.15 -11.95 -15.46
C 7.61 -11.23 -14.40
C -3.95 7.24 9.95
O -5.06 7.74 9.22
C -5.95 6.66 8.81
C -5.58 6.03 7.42
O -4.25 5.49 7.41
C -4.11 4.20 7.99
C 10.92 7.36 9.36
O 11.13 8.07 10.56
C 12.02 7.45 11.46
C 13.52 7.86 11.04
O 13.76 9.21 11.37
C 15.02 9.55 10.83
C -7.99 -7.10 6.05
O -7.66 -5.87 5.55
C -6.60 -5.25 6.39
C -6.39 -3.85 5.82
O -7.46 -3.02 6.19
C -7.11 -2.12 7.22
C 7.23 17.10 2.67
O 6.93 15.79 3.13
C 6.06 15.11 2.24
C 4.67 15.50 2.52
O 4.37 15.20 3.88
C 3.05 15.62 4.21
C -8.88 15.81 -14.40
O -7.60 16.41 -14.20
C -7.15 16.19 -12.89
C -5.74 16.91 -12.79
O -4.84 16.21 -13.61
C -3.58 16.83 -13.48
C -8.08 2.62 15.35
O -9.11 3.37 14.76
C -9.09 3.43 13.38
C -9.88 2.29 12.65
O -11.24 2.38 12.93
C -12.03 1.49 12.18
C -0.37 12.61 5.85
O -1.29 13.67 5.59
C -0.98 14.84 6.36
C -2.31 15.62 6.42
O -3.18 15.13 7.47
C -2.61 15.54 8.70
C 7.87 -16.19 -1.43
O 6.69 -15.67 -0.80
C 5.70 -16.65 -0.81
C 5.09 -16.54 -2.22
O 4.42 -15.30 -2.41
C 2.97 -15.28 -2.26
C 3.42 16.22 14.72
O 4.35 16.23 13.62
C 3.75 16.94 12.51
C 4.81 16.95 11.35
O 5.06 15.56 10.94
C 5.96 15.57 9.86
C 8.16 15.77 -11.95
O 6.83 15.81 -12.40
C 6.64 15.42 -13.75
C 5.16 14.91 -13.85
O 5.05 13.49 -13.58
C 3.76 13.07 -13.86
C 12.41 -2.34 0.90
O 11.75 -2.90 2.00
C 12.24 -4.14 2.42
C 11.12 -4.79 3.37
O 9.96 -5.30 2.79
C 9.14 -4.34 2.17
C 1.32 13.57 -6.34
O 1.44 13.47 -7.79
C 2.78 13.84 -8.23
C 2.66 14.04 -9.76
O 1.88 15.18 -10.10
C 1.14 15.20 -11.32
C -0.30 1.38 -0.59
O 0.75 1.02 -1.50
C 1.56 -0.01 -0.89
C 2.85 0.50 -0.19
O 3.74 0.94 -1.21
C 3.38 2.30 -1.65
C 10.58 -17.64 10.42
O 10.52 -17.50 9.01
C 9.37 -16.82 8.46
C 9.44 -16.64 6.96
O 10.52 -15.82 6.53
C 10.47 -15.53 5.15
C 14.61 -17.51 11.83
O 14.64 -16.62 12.94
C 14.57 -17.38 14.13
C 14.76 -16.37 15.33
O 13.61 -15.58 15.28
C 13.34 -14.63 16.30
C -4.30 -3.66 9.89
O -3.21 -3.76 10.73
C -2.85 -5.10 10.94
C -1.98 -5.59 9.79
O -0.79 -4.84 9.78
C 0.12 -5.34 8.79
C 12.71 -13.21 -0.23
O 12.21 -14.60 -0.21
C 11.65 -15.07 -1.43
C 12.70 -15.53 -2.43
O 13.28 -16.70 -1.85
C 14.46 -16.99 -2.57
C -7.22 11.91 0.13
O -6.69 12.53 -1.06
C -7.02 13.93 -1.22
C -8.56 14.15 -1.44
O -8.94 13.15 -2.35
C -10.27 12.85 -2.05
C 7.23 -8.31 -5.00
O 7.89 -8.35 -6.23
C 6.97 -8.20 -7.30
C 6.62 -6.80 -7.67
O 5.99 -6.02 -6.70
C 4.67 -6.47 -6.34
C -12.90 -5.12 -14.71
O -11.89 -4.30 -15.29
C -12.38 -3.44 -16.29
C -12.72 -2.05 -15.77
O -11.50 -1.54 -15.25
C -11.42 -1.58 -13.81
C -0.02 8.40 -0.06
O 0.27 7.08 -0.51
C -0.92 6.34 -0.63
C -1.25 5.67 0.66
O -1.98 6.60 1.47
C -2.64 5.96 2.59
C -11.37 9.36 3.24
O -11.72 8.05 3.41
C -11.97 7.45 2.16
C -12.48 6.02 2.34
O -13.52 5.87 3.34
C -14.78 5.67 2.78
C 2.65 -5.28 6.73
O 3.75 -5.51 5.89
C 3.38 -5.25 4.52
C 4.72 -5.50 3.73
O 5.76 -4.58 4.07
C 5.67 -3.39 3.31
C 11.33 2.07 -6.66
O 10.22 2.48 -5.80
C 10.46 2.04 -4.43
C 9.24 2.30 -3.56
O 9.13 3.67 -3.26
C 8.36 4.41 -4.18
C 7.19 10.73 -5.56
O 5.81 10.61 -5.69
C 5.21 10.30 -6.93
C 5.44 8.83 -7.34
O 5.27 8.01 -6.18
C 5.35 6.64 -6.51
C 15.66 12.47 4.60
O 15.63 12.61 3.22
C 14.64 13.54 2.81
C 14.94 14.01 1.42
O 16.19 14.60 1.51
C 16.24 15.57 0.48
C 12.31 -11.79 -4.22
O 11.14 -12.23 -3.51
C 10.00 -11.41 -3.91
C 9.19 -12.16 -4.96
O 9.80 -12.03 -6.23
C 8.92 -12.44 -7.25
C 2.82 0.03 9.47
O 2.45 1.29 8.95
C 3.52 2.03 8.35
C 4.38 2.54 9.49
O 3.42 3.13 10.39
C 4.12 3.31 11.60
C -14.15 -5.31 -0.26
O -13.84 -6.65 -0.43
C -13.22 -7.22 0.71
C -13.15 -8.78 0.46
O -14.52 -9.25 0.52
C -14.77 -10.30 -0.42
C 16.83 -6.02 -5.97
O 17.48 -4.79 -6.10
C 17.10 -4.20 -7.34
C 17.34 -2.67 -7.26
O 16.73 -2.19 -6.04
C 17.45 -1.07 -5.64
C 4.91 10.43 13.76
O 3.72 11.18 13.66
C 3.01 11.30 14.86
C 1.73 12.23 14.64
O 0.90 11.97 13.47
C 0.15 10.77 13.79
C -6.14 8.86 -15.50
O -6.75 9.73 -16.44
C -8.10 9.34 -16.61
C -8.98 9.67 -15.34
O -9.42 11.00 -15.39
C -8.44 12.05 -15.28
C -16.89 -1.76 11.19
O -15.55 -1.45 10.87
C -15.41 -0.16 10.24
C -14.99 -0.07 8.74
O -16.01 -0.43 7.80
C -16.86 0.69 7.66
C 2.77 13.16 11.00
O 1.59 12.71 10.47
C 0.79 13.74 10.01
C -0.01 14.45 11.16
O -1.04 13.57 11.68
C -1.65 14.11 12.81
C 12.52 -1.23 -2.74
O 12.55 -0.62 -4.00
C 13.85 0.01 -4.25
C 14.47 0.87 -3.08
O 13.57 1.92 -2.72
C 14.07 2.87 -1.87
C 7.96 -7.22 6.17
O 6.90 -6.59 6.90
C 7.42 -5.74 7.94
C 7.50 -4.36 7.42
O 6.15 -3.93 7.21
C 5.87 -2.61 6.97
C -15.91 6.35 14.78
O -15.66 7.11 15.92
C -16.86 7.22 16.67
C -17.25 6.00 17.57
O -17.53 4.86 16.77
C -16.81 3.70 17.22
C -6.21 2.72 5.19
O -7.43 2.64 4.56
C -7.23 2.20 3.22
C -8.61 2.23 2.58
O -9.65 1.84 3.49
C -9.77 0.47 3.75
C -12.35 -11.11 -3.31
O -11.41 -10.51 -4.23
C -10.02 -10.72 -4.08
C -9.58 -9.48 -3.31
O -9.80 -8.27 -4.03
C -8.81 -7.28 -4.00
C -12.66 1.01 -4.93
O -12.90 2.24 -4.28
C -14.03 2.88 -4.85
C -13.48 3.60 -6.17
O -12.38 4.47 -5.78
C -12.78 5.79 -5.94
C -3.72 -1.57 -2.00
O -4.04 -2.34 -0.82
C -2.89 -2.88 -0.24
C -3.29 -3.80 0.89
O -3.65 -2.95 1.93
C -3.80 -3.61 3.18
C -12.67 17.84 10.06
O -13.13 16.52 9.99
C -14.29 16.27 9.29
C -15.12 15.22 10.04
O -15.42 15.71 11.36
C -16.08 14.71 12.10
C 6.44 3.42 -0.46
O 5.41 4.36 -0.31
C 4.74 4.34 0.95
C 4.77 5.75 1.65
O 4.27 6.65 0.74
C 3.14 7.31 1.33
C -3.11 11.45 -1.46
O -2.61 12.32 -2.40
C -1.23 12.42 -2.43
C -0.72 13.44 -3.47
O -1.10 14.79 -3.15
C -0.71 15.78 -4.06
C -12.16 -10.98 6.13
O -11.06 -11.22 6.99
C -11.66 -11.66 8.17
C -10.50 -11.59 9.17
O -9.58 -12.55 8.82
C -9.86 -13.87 9.35
C 13.69 -0.35 -17.85
O 13.25 -0.21 -16.53
C 13.62 -1.40 -15.82
C 12.44 -2.44 -15.89
O 11.32 -1.71 -15.39
C 10.22 -2.54 -15.28
C -2.62 1.87 -4.23
O -3.88 1.29 -3.77
C -4.53 2.28 -3.12
C -5.98 1.97 -2.78
O -6.47 3.18 -2.24
C -7.64 2.91 -1.59
C -17.79 -11.55 7.02
O -17.38 -12.86 6.81
C -16.67 -13.07 5.64
C -16.90 -14.50 5.01
O -16.79 -15.43 6.08
C -17.25 -16.70 5.79
C 13.07 17.73 -10.25
O 12.38 17.92 -11.38
C 11.96 16.65 -11.90
C 12.95 16.24 -13.00
O 12.71 17.02 -14.15
C 13.11 16.34 -15.35
C 17.27 10.28 -15.55
O 16.76 10.33 -16.85
C 15.53 10.92 -17.05
C 14.46 10.20 -16.25
O 14.48 10.56 -14.88
C 13.59 11.69 -14.60
C -0.79 -9.78 10.03
O 0.33 -9.79 9.17
C 0.05 -9.34 7.79
C 1.35 -9.31 6.98
O 2.29 -8.52 7.74
C 3.49 -8.61 7.08
C -13.90 -15.37 -12.96
O -12.62 -14.92 -13.36
C -11.74 -14.88 -12.30
C -10.55 -14.22 -12.78
O -10.04 -15.10 -13.81
C -8.75 -14.76 -14.33
C 17.74 8.17 -3.89
O 16.37 8.28 -4.14
C 15.55 7.61 -3.13
C 14.10 7.84 -3.54
O 13.99 9.21 -3.91
C 12.90 9.37 -4.83
C 9.79 0.99 16.81
O 8.88 2.04 16.98
C 7.64 1.92 16.26
C 6.67 3.07 16.63
O 6.15 3.00 17.99
C 7.17 3.08 19.02
C 17.56 4.27 7.35
O 16.70 5.39 7.05
C 16.36 5.43 5.65
C 15.06 6.30 5.44
O 15.34 7.67 5.79
C 14.17 8.43 5.59
C 14.23 14.42 16.49
O 15.63 14.63 16.43
C 16.17 15.03 17.66
C 17.54 14.38 17.84
O 18.41 14.69 16.79
C 19.39 15.63 17.07
C -7.54 5.11 -10.14
O -6.48 5.90 -10.74
C -6.92 6.66 -11.79
C -8.14 7.60 -11.64
O -7.86 8.67 -10.74
C -9.05 9.36 -10.33
C 9.84 -15.20 -14.35
O 11.06 -14.77 -13.71
C 11.26 -13.37 -13.49
C 12.77 -13.19 -13.71
O 13.51 -14.27 -13.10
C 14.88 -14.34 -13.34
C 9.83 -14.98 14.73
O 9.87 -14.36 13.45
C 11.18 -14.22 13.02
C 11.37 -13.91 11.52
O 10.39 -12.96 11.11
C 10.53 -11.63 11.60
C 7.88 -5.40 -2.90
O 7.40 -4.05 -3.02
C 6.70 -3.74 -4.24
C 6.01 -2.36 -4.15
O 6.99 -1.32 -4.04
C 7.45 -0.78 -5.22
C 0.04 4.00 11.30
O -0.78 2.88 11.15
C -0.13 1.83 10.36
C -1.00 0.67 10.12
O -1.43 0.19 11.43
C -2.52 -0.72 11.29
C -5.39 -8.18 -0.97
O -5.63 -9.49 -0.50
C -4.94 -10.50 -1.20
C -5.54 -11.81 -0.90
O -5.66 -12.04 0.53
C -4.42 -12.30 1.08
C 3.38 -6.86 10.92
O 2.86 -8.11 11.16
C 3.86 -9.00 11.73
C 4.56 -9.85 10.69
O 3.49 -10.40 9.97
C 2.92 -11.58 10.53
C 6.13 -15.16 -19.65
O 5.85 -15.19 -18.25
C 5.96 -13.95 -17.53
C 5.69 -14.26 -16.05
O 6.55 -15.25 -15.48
C 6.01 -15.86 -14.33
C 2.56 -9.72 -11.93
O 2.67 -8.59 -11.08
C 3.21 -7.51 -11.76
C 3.89 -6.60 -10.75
O 2.96 -6.32 -9.68
C 2.06 -5.25 -9.86
C -14.01 17.43 13.69
O -12.84 17.01 14.33
C -11.81 16.82 13.40
C -10.50 16.50 14.24
O -10.32 17.63 15.11
C -9.01 17.57 15.68
C -7.50 -10.53 6.48
O -7.51 -12.01 6.50
C -7.16 -12.42 5.17
C -7.70 -13.85 5.19
O -9.08 -13.73 5.35
C -9.83 -13.74 4.15
C 11.76 5.64 -5.28
O 11.37 6.33 -4.09
C 11.63 5.52 -2.95
C 10.64 6.03 -1.84
O 11.13 7.19 -1.24
C 10.61 7.25 0.06
C -13.89 12.56 15.98
O -12.85 11.69 16.21
C -13.29 10.54 16.94
C -12.03 9.62 17.09
O -11.49 9.07 15.89
C -12.38 8.22 15.26
C 10.90 11.15 12.94
O 11.48 11.32 11.67
C 10.83 12.03 10.67
C 11.70 12.19 9.43
O 11.98 10.92 8.83
C 12.30 10.94 7.46
C 9.28 6.85 -8.00
O 9.10 6.30 -9.29
C 9.46 4.93 -9.24
C 9.55 4.25 -10.64
O 10.69 4.59 -11.35
C 11.97 4.12 -10.89
C -3.01 5.71 -5.14
O -2.22 5.90 -4.01
C -0.91 6.26 -4.30
C -0.79 7.82 -4.40
O -1.42 8.31 -5.57
C -1.44 9.75 -5.70
C -6.11 6.16 -2.95
O -6.61 6.23 -4.24
C -7.71 5.31 -4.45
C -8.36 5.61 -5.73
O -8.67 6.99 -5.72
C -9.05 7.50 -7.01
C 11.24 8.42 -12.59
O 11.38 9.07 -13.84
C 11.51 8.23 -14.95
C 10.32 7.34 -15.20
O 9.10 8.10 -15.11
C 8.01 7.20 -14.94
C -13.41 -15.77 3.48
O -13.95 -15.14 2.32
C -12.97 -14.26 1.79
C -13.34 -14.05 0.30
O -14.62 -13.68 0.08
C -14.80 -14.02 -1.29
C -16.87 11.61 0.18
O -15.97 12.08 1.16
C -14.74 11.43 1.27
C -13.70 11.95 0.38
O -13.18 13.12 1.02
C -13.99 14.23 0.94
C 0.04 -16.50 4.18
O 0.70 -15.58 3.38
C -0.22 -14.60 3.07
C 0.53 -13.48 2.40
O 0.90 -14.01 1.16
C 1.31 -13.10 0.19
C -17.69 0.82 -14.39
O -17.51 1.04 -12.94
C -18.07 0.02 -12.08
C -17.11 -1.20 -11.86
O -15.79 -0.74 -11.39
C -14.71 -0.92 -12.21
C -10.41 3.12 -9.47
O -10.63 4.11 -10.41
C -11.99 4.26 -10.73
C -12.08 5.40 -11.76
O -11.71 6.63 -11.29
C -12.64 7.17 -10.39
C 4.08 -13.45 -11.06
O 5.11 -13.24 -10.06
C 6.07 -12.34 -10.41
C 7.36 -12.99 -11.01
O 7.99 -13.79 -10.04
C 9.23 -14.34 -10.53
C -12.92 6.14 -15.28
O -13.49 7.39 -15.37
C -13.63 7.94 -14.06
C -12.43 8.71 -13.62
O -12.13 9.78 -14.48
C -12.79 10.99 -14.09
C -4.96 -13.11 10.03
O -3.89 -13.96 9.62
C -3.99 -14.28 8.22
C -3.00 -13.35 7.41
O -1.69 -13.33 8.05
C -0.85 -14.38 7.67
C -11.81 11.23 -10.50
O -11.43 10.92 -9.17
C -11.90 11.85 -8.27
C -11.12 11.76 -6.99
O -11.04 10.43 -6.46
C -12.00 10.07 -5.52
C 5.21 10.51 9.70
O 4.28 11.07 8.73
C 4.83 12.19 7.95
C 3.73 12.92 7.14
O 2.87 12.01 6.45
C 3.45 11.59 5.20
C -14.38 -3.95 9.01
O -14.26 -5.01 8.12
C -14.38 -6.30 8.71
C -14.13 -7.35 7.62
O -12.95 -7.10 6.97
C -11.86 -7.73 7.68
C -3.40 19.01 -5.55
O -3.41 17.93 -4.69
C -4.72 17.28 -4.67
C -4.62 15.79 -4.36
O -3.78 15.23 -5.42
C -3.83 13.78 -5.41
C -10.48 17.07 6.33
O -10.69 16.21 5.25
C -11.41 15.04 5.58
C -11.47 14.11 4.38
O -10.20 13.97 3.77
C -10.26 13.45 2.51
C -1.79 2.38 4.86
O -2.89 1.86 4.18
C -2.48 1.19 3.00
C -3.70 0.47 2.23
O -4.60 1.46 1.79
C -4.28 1.93 0.49
C -4.66 8.98 1.04
O -5.42 9.06 2.23
C -6.46 8.05 2.31
C -7.67 8.88 2.34
O -8.16 9.39 1.08
C -8.61 8.50 0.05
C 10.28 8.11 5.31
O 9.11 8.39 4.55
C 8.15 9.02 5.40
C 6.90 9.34 4.59
O 7.35 10.16 3.55
C 7.47 11.52 3.92
C -10.03 -1.47 -2.19
O -9.55 -1.24 -0.86
C -8.11 -1.21 -0.84
C -7.43 -1.98 0.26
O -7.81 -1.53 1.57
C -7.27 -2.22 2.64
C 2.30 -1.17 5.86
O 2.38 -1.69 4.59
C 1.14 -1.93 3.97
C 1.39 -2.26 2.51
O 1.94 -3.62 2.35
C 2.23 -3.82 0.97
C 4.75 1.62 -13.49
O 4.39 0.42 -14.17
C 5.18 0.25 -15.30
C 4.90 -1.08 -15.93
O 5.06 -2.18 -15.03
C 6.36 -2.36 -14.48
C 0.70 8.39 4.21
O 0.70 7.24 4.97
C -0.52 7.15 5.71
C -0.43 6.16 6.89
O 0.15 4.93 6.46
C 0.57 4.14 7.60
C -2.21 17.28 15.48
O -1.76 16.02 15.91
C -0.49 16.06 16.54
C -0.68 16.21 18.01
O -1.38 15.04 18.46
C -0.57 14.01 19.02
C -11.51 -2.31 6.61
O -11.30 -3.00 5.35
C -10.62 -4.21 5.58
C -10.42 -4.90 4.22
O -11.61 -5.06 3.46
C -12.64 -5.93 3.94
C -12.93 7.74 11.52
O -11.70 7.35 11.98
C -11.65 5.98 12.19
C -11.12 5.27 10.90
O -9.84 5.89 10.57
C -9.18 5.09 9.59
C 17.40 17.29 -13.67
O 16.52 16.18 -13.50
C 17.03 15.08 -12.74
C 17.27 15.46 -11.29
O 16.03 15.61 -10.57
C 15.22 14.48 -10.42
C -10.36 -8.54 -14.48
O -10.56 -8.85 -15.83
C -11.33 -7.86 -16.42
C -11.19 -8.00 -17.93
O -9.81 -7.75 -18.16
C -9.46 -7.81 -19.56
C 6.39 -1.21 -0.31
O 7.43 -2.07 0.05
C 8.47 -2.01 -0.93
C 9.48 -1.00 -0.38
O 9.00 0.34 -0.60
C 9.71 1.24 0.21
C -13.86 -14.45 -8.24
O -12.80 -15.35 -8.66
C -13.38 -16.55 -9.18
C -12.36 -17.69 -9.05
O -11.75 -17.66 -7.79
C -12.55 -18.41 -6.86
C -2.37 6.53 13.20
O -2.55 6.26 14.58
C -3.88 6.08 14.97
C -4.12 6.37 16.51
O -3.71 5.32 17.38
C -2.29 5.03 17.35
C 9.33 -4.90 -12.73
O 10.31 -5.37 -13.70
C 11.66 -5.16 -13.39
C 12.21 -6.31 -12.69
O 11.98 -7.48 -13.49
C 12.38 -8.70 -12.88
C 6.38 -11.56 4.66
O 7.32 -11.02 5.58
C 7.19 -11.49 6.92
C 8.44 -11.05 7.76
O 9.69 -11.44 7.23
C 9.87 -12.82 7.52
C 14.83 -8.47 18.93
O 14.87 -7.49 17.89
C 13.68 -6.82 17.55
C 13.88 -5.91 16.33
O 14.77 -4.83 16.61
C 14.88 -3.89 15.54
C 2.47 9.53 -14.44
O 2.46 10.29 -15.65
C 1.25 11.00 -15.98
C 0.15 9.98 -16.47
O 0.50 9.38 -17.71
C 0.83 8.05 -17.44
C -3.01 -2.60 -14.58
O -2.99 -1.82 -15.73
C -2.35 -0.55 -15.51
C -3.15 0.52 -16.33
O -4.27 0.95 -15.57
C -4.91 2.15 -16.03
C -5.03 10.89 4.95
O -4.61 11.82 5.91
C -3.62 11.27 6.87
C -3.96 11.93 8.29
O -5.16 11.35 8.77
C -5.45 11.79 9.99
C 14.26 18.10 2.62
O 13.21 17.26 2.97
C 11.93 17.55 2.34
C 11.89 16.68 1.04
O 11.91 15.30 1.36
C 10.62 14.87 1.84
C -18.96 1.20 14.55
O -18.75 -0.20 14.75
C -17.41 -0.66 14.65
C -16.55 -0.09 15.77
O -16.16 1.21 15.36
C -14.83 1.09 14.76
C 5.01 0.85 3.16
O 6.34 1.32 3.32
C 6.49 1.93 4.56
C 6.00 3.43 4.65
O 6.70 4.14 3.61
C 8.00 4.65 3.89
C -10.27 -8.16 -7.31
O -11.57 -8.29 -6.70
C -12.45 -7.16 -6.85
C -13.76 -7.57 -6.25
O -13.56 -8.36 -5.08
C -13.37 -7.59 -3.94
C 8.56 -10.81 0.58
O 9.64 -10.42 1.44
C 9.86 -11.28 2.53
C 9.89 -10.41 3.79
O 11.02 -9.52 3.62
C 11.07 -8.61 4.77
C 9.00 -0.45 4.03
O 8.53 -0.96 5.26
C 9.47 -0.75 6.31
C 9.31 0.70 6.82
O 8.06 1.01 7.40
C 7.70 0.40 8.62
C -2.51 15.91 2.11
O -3.47 16.42 1.26
C -3.27 16.09 -0.10
C -2.53 17.15 -0.97
O -3.09 18.36 -0.63
C -2.63 19.44 -1.43
C 7.07 -2.13 -8.78
O 7.14 -2.22 -10.19
C 6.16 -3.13 -10.76
C 4.93 -2.35 -11.34
O 4.01 -1.88 -10.34
C 3.06 -0.89 -10.65
C 16.97 -4.47 7.47
O 17.21 -4.29 6.11
C 15.98 -3.95 5.40
C 16.35 -3.79 3.92
O 17.07 -4.96 3.58
C 17.11 -5.12 2.18
C 3.69 -10.23 -8.32
O 3.27 -9.15 -7.50
C 2.18 -9.42 -6.60
C 0.90 -9.41 -7.48
O 0.85 -8.08 -8.03
C 0.36 -7.21 -7.02
C 2.81 5.75 -2.62
O 4.19 6.00 -2.41
C 4.37 7.30 -2.91
C 5.89 7.64 -2.98
O 6.55 7.55 -1.72
C 6.25 8.68 -0.92
C -5.66 -8.96 -14.08
O -5.91 -9.88 -15.04
C -7.21 -10.48 -14.94
C -7.43 -11.34 -16.20
O -6.46 -12.37 -16.32
C -6.44 -13.05 -17.53
C 5.31 4.97 -11.55
O 5.60 4.28 -10.40
C 4.46 3.92 -9.67
C 3.88 2.56 -10.06
O 4.99 1.65 -10.25
C 5.58 1.15 -9.11
C 14.63 12.83 12.29
O 16.01 12.40 12.34
C 16.07 11.64 13.58
C 17.50 11.17 13.75
O 17.55 9.98 12.98
C 18.89 9.64 12.81
C 13.38 -7.98 -4.12
O 14.06 -8.31 -2.93
C 15.31 -8.84 -3.24
C 16.02 -9.30 -1.95
O 16.15 -8.12 -1.12
C 17.47 -7.52 -1.18
C -1.76 -12.09 12.62
O -1.33 -12.74 11.42
C -0.27 -13.75 11.62
C -0.92 -15.09 12.01
O -1.57 -15.56 10.83
C -2.61 -16.42 11.25
C -5.12 12.99 -11.55
O -5.29 12.83 -10.12
C -6.18 11.76 -9.73
C -5.71 11.25 -8.37
O -4.54 10.51 -8.61
C -4.72 9.17 -9.02
C -2.64 -1.37 -9.42
O -1.48 -2.03 -9.91
C -1.58 -2.42 -11.24
C -0.34 -3.09 -11.85
O 0.33 -2.15 -12.72
C 1.42 -2.74 -13.44
C -14.53 -3.46 5.16
O -14.42 -2.98 3.83
C -14.11 -1.63 3.89
C -13.40 -1.31 2.51
O -12.15 -1.98 2.41
C -11.56 -1.78 1.16
C 18.16 -14.51 13.72
O 17.13 -13.66 14.15
C 16.40 -13.02 13.10
C 15.38 -12.11 13.82
O 16.10 -11.08 14.54
C 15.40 -10.61 15.65
C -15.84 -10.53 -6.37
O -15.89 -11.91 -6.13
C -16.38 -12.01 -4.80
C -17.32 -13.20 -4.70
O -18.66 -12.91 -5.04
C -18.91 -13.03 -6.41
C -7.95 -9.91 10.95