20480
I am the first step of an xyz trajectory for BMIMNTf2
C 16.4639 35.7942 -13.9636 
C 15.7246 31.3689 -11.8069 
F 16.7973 37.0303 -13.6722 
F 16.9564 31.4046 -11.3222 
F 15.045 31.8997 -10.7986 
F 15.4699 30.0443 -11.9305 
F 15.1432 35.9816 -14.414 
F 17.3414 35.5396 -14.9437 
N 16.7415 33.2227 -13.1445 
O 17.8471 35.0591 -11.8586 
O 15.4276 34.8885 -11.7459 
O 15.988 31.0802 -14.2974 
O 14.2263 32.5609 -13.4923 
S 16.6006 34.6313 -12.4541 
S 15.6234 32.1674 -13.4165 
C 25.4959 10.8817 -13.6559 
C 21.4195 11.5073 -10.9342 
F 26.4058 10.0392 -13.121 
F 25.5644 12.087 -13.1356 
F 25.9254 11.2103 -14.8382 
F 21.2917 10.708 -9.84526 
F 20.7809 12.6666 -10.6157 
F 20.6876 10.9744 -11.8493 
N 23.4956 10.4499 -12.0658 
O 24.0548 8.79152 -13.9164 
O 22.9598 10.98 -14.5015 
O 23.5674 12.0509 -10.1263 
O 22.8526 12.9919 -12.2531 
S 23.7861 10.2116 -13.5881 
S 23.0836 11.8622 -11.4234 
C 25.8788 -20.3546 24.0918 
C 21.5567 -18.4268 24.3607 
F 25.8487 -20.4434 25.4282 
F 26.2839 -21.5039 23.6759 
F 21.4197 -19.7334 24.1664 
F 21.4577 -17.8967 23.1234 
F 20.5243 -17.9511 25.1115 
F 26.7903 -19.475 23.7439 
N 24.1442 -18.4999 24.0791 
O 24.533 -19.8698 22.0679 
O 23.4053 -21.0129 23.9486 
O 23.0284 -16.4818 25.0901 
O 23.132 -18.556 26.3701 
S 24.2659 -19.9205 23.4594 
S 23.125 -17.9125 25.1006 
C 6.61905 -8.95804 -0.960734 
C 1.57765 -8.89905 -0.0927133 
F 7.67027 -9.70455 -1.12557 
F 6.32116 -8.78751 0.334155 
F 1.38994 -10.1459 -0.422446 
F 0.959549 -8.30377 -1.10709 
F 0.905591 -8.66959 0.987153 
F 6.88309 -7.70526 -1.36967 
N 3.95669 -8.6408 -1.22002 
O 5.05736 -11.0083 -1.31887 
O 5.33804 -9.30587 -3.15788 
O 3.26953 -7.06373 0.565135 
O 3.81364 -9.33685 1.26797 
S 5.07722 -9.5952 -1.75912 
S 3.34911 -8.42957 0.211549 
C -34.5722 31.7068 -5.7857 
C -35.4188 35.213 -3.05129 
F -35.5586 31.4561 -4.93355 
F -35.0243 32.5141 -6.7384 
F -34.3931 30.5989 -6.43029 
F -34.9729 36.0713 -3.90011 
F -35.7105 35.8162 -1.95984 
F -36.5297 34.8376 -3.6267 
N -33.6867 33.6127 -4.24683 
O -32.7325 31.2569 -3.95447 
O -32.1063 32.6621 -5.99927 
O -33.3307 34.3095 -1.83377 
O -35.158 32.7093 -2.40486 
S -33.0556 32.3359 -4.88246 
S -34.2712 33.7761 -2.80267 
C -21.1452 18.9528 21.4031 
C -20.5439 14.3399 19.2426 
F -21.4983 19.9243 20.5779 
F -20.5795 19.489 22.4662 
F -21.0876 13.1696 18.9689 
F -19.6583 14.2161 20.2022 
F -19.8039 14.5291 18.1638 
F -22.2234 18.3015 21.84 
N -20.6817 17.0269 19.5713 
O -18.8431 18.5779 20.2381 
O -22.4994 15.7464 18.3884 
O -19.6077 16.8751 21.7668 
O -22.3399 15.3763 20.8196 
S -19.9672 17.7819 20.717 
S -21.6781 15.7541 19.5726 
C 9.56352 1.80952 -17.5539 
C 12.6896 -0.69366 -20.4938 
F 9.02426 2.27916 -16.4475 
F 10.014 2.79836 -18.2989 
F 12.7689 0.539677 -20.9571 
F 12.9002 -1.46456 -21.5536 
F 13.6559 -0.965293 -19.6252 
F 8.43895 1.39035 -18.2355 
N 10.9433 0.0916258 -18.783 
O 10.1324 -0.623342 -16.5139 
O 11.9061 0.997527 -16.6446 
O 11.2164 -2.34431 -19.0068 
O 10.0862 -1.04209 -20.7768 
S 10.7547 0.385883 -17.2849 
S 10.9975 -1.12394 -19.6747 
C -8.91814 28.5236 -23.6767 
C -4.56077 26.6479 -25.029 
F -8.80423 27.9287 -22.4758 
F -10.1743 28.9641 -23.7993 
F -4.66904 25.3556 -24.9207 
F -4.39063 27.0078 -23.7424 
F -3.43902 26.8559 -25.6454 
F -8.10943 29.5702 -23.7561 
N -7.16741 26.9862 -24.8661 
O -9.0497 28.0675 -26.1852 
O -5.69019 28.8049 -25.8164 
O -9.37576 26.0837 -24.7062 
O -5.93798 26.7408 -27.1248 
S -8.6665 27.3026 -25.033 
S -5.995 27.4378 -25.8634 
C 21.9678 19.7118 40.5028 
C 24.6947 18.8728 44.5781 
F 20.9561 19.709 41.3669 
F 21.68 20.7238 39.6956 
F 21.8726 18.5516 39.7934 
F 25.3323 17.7198 44.5176 
F 24.7725 19.3658 45.8168 
F 25.3457 19.6912 43.7656 
N 23.3727 18.6956 42.3614 
O 23.5932 21.1857 41.9491 
O 24.5276 19.6869 40.3223 
O 22.2875 19.8454 44.4036 
O 22.5561 17.3844 44.3155 
S 23.5527 19.8833 41.3462 
S 23.0222 18.6756 43.8766 
C 0.583518 5.75221 0.745054 
C 3.56336 7.67165 -0.599348 
F 0.554088 7.08022 0.776947 
F 4.29201 7.02635 -1.48866 
F 4.07859 8.92064 -0.727122 
F 2.31832 7.55197 -0.977999 
F -0.566438 5.30836 1.261 
F 0.56075 5.33705 -0.506539 
N 3.14538 5.72929 0.881375 
O 1.80957 5.48858 2.97266 
O 1.90213 3.68747 1.25365 
O 3.02313 7.97243 1.82083 
O 5.32398 7.16969 1.1341 
S 2.03391 5.06194 1.64193 
S 3.85659 7.09406 1.05023 
C -17.1243 20.19 14.3091 
C -13.6764 21.8916 13.7303 
F -17.0714 20.6658 13.1072 
F -12.8343 21.4754 14.5759 
F -14.0665 20.8425 12.9872 
F -13.0313 22.7401 12.9653 
F -18.3185 19.5687 14.3342 
F -16.2011 19.2594 14.328 
N -15.5745 21.9086 15.5342 
O -18.0184 22.3423 15.4706 
O -17.1301 20.5826 16.8598 
O -15.9865 22.8675 13.2461 
O -14.5707 24.076 14.866 
S -17.0052 21.3813 15.7179 
S -15.1382 22.8193 14.4111 
C -27.7069 -12.2393 22.5116 
C -24.348 -13.3172 22.3777 
F -26.5242 -11.5523 22.3607 
F -28.0446 -12.5734 21.2564 
F -23.0195 -13.4087 22.2985 
F -24.7199 -12.7762 21.272 
F -24.591 -12.482 23.3942 
F -28.5703 -11.3959 22.9915 
N -26.6595 -14.4875 22.5041 
O -28.8336 -14.1773 23.6345 
O -24.7762 -15.732 21.5902 
O -26.8396 -13.1729 24.7352 
O -24.7194 -15.3996 23.9314 
S -27.5045 -13.6861 23.5323 
S -25.1642 -14.9357 22.6686 
C 4.83764 25.9576 -8.95853 
C 6.00707 28.3213 -4.74633 
F 3.77515 26.566 -9.3968 
F 4.58161 24.8591 -8.29043 
F 5.52278 25.6107 -10.0645 
F 7.24162 28.149 -5.14236 
F 6.02835 28.3116 -3.45758 
F 5.63254 29.5394 -5.07189 
N 4.75791 27.3449 -6.73144 
O 6.13169 28.2528 -8.63014 
O 6.93484 26.2593 -7.36131 
O 5.50049 25.8373 -4.80797 
O 3.68404 27.5058 -4.44108 
S 5.82981 27.0589 -7.82996 
S 4.88076 27.0757 -5.21862 
C -29.1334 -13.1209 45.7939 
C -33.69 -15.4665 45.7875 
F -28.1688 -12.416 45.3011 
F -28.7838 -14.3529 45.4857 
F -34.5578 -14.4612 45.6522 
F -33.3453 -15.4416 47.0473 
F -34.2969 -16.5266 45.381 
F -28.9932 -13.0466 47.0828 
N -31.692 -13.8539 45.6072 
O -31.1241 -11.3945 45.9219 
O -32.7906 -14.7015 43.5056 
O -30.4788 -12.2952 43.745 
O -31.4232 -16.2305 44.9264 
S -30.8044 -12.5671 45.1112 
S -32.2047 -15.0526 44.7775 
C 8.44296 -1.18645 19.9296 
C 7.55287 -2.91196 24.2493 
F 7.31594 -1.11195 19.2395 
F 9.40849 -0.955821 19.0036 
F 6.75318 -1.85658 24.2829 
F 7.48444 -3.50726 25.4282 
F 8.79559 -2.46177 24.1767 
F 8.51349 -0.163217 20.7092 
N 7.45198 -3.00978 21.6235 
O 10.0112 -2.57658 21.479 
O 8.13326 -5.11217 22.9517 
O 8.78979 -3.69629 19.6331 
O 5.82086 -4.40517 22.8977 
S 8.75012 -2.81265 20.7447 
S 7.20056 -4.02775 22.8082 
C -22.013 -1.8395 -37.319 
C -23.2647 -4.01592 -40.155 
F -23.2868 -2.26792 -37.3279 
F -21.9287 -1.26094 -36.1374 
F -21.1468 -2.8714 -37.254 
F -23.2863 -4.35293 -38.903 
F -24.1196 -4.72728 -40.8258 
F -22.0796 -4.24579 -40.611 
N -22.2693 -1.53846 -39.8573 
O -20.5235 -0.245755 -38.6705 
O -22.9145 0.342176 -38.1827 
O -23.9109 -2.10493 -41.6799 
O -24.7088 -2.05243 -39.3478 
S -21.9216 -0.647267 -38.6329 
S -23.606 -2.22038 -40.2671 
C -2.68653 -34.4818 26.473 
C 0.627513 -32.8778 22.9221 
F -3.12752 -35.6428 25.9625 
F -1.79159 -34.955 27.3243 
F 1.40925 -32.5555 23.907 
F 1.4024 -32.9194 21.8591 
F -0.164673 -31.8708 22.755 
F -3.7137 -33.9971 27.1071 
N -0.721537 -34.2074 24.7606 
O -1.4926 -32.2809 26.223 
O -1.19896 -34.6594 22.225 
O -2.99292 -33.0653 24.3675 
O 0.943928 -35.3863 23.3103 
S -1.91012 -33.3496 25.2855 
S -0.200338 -34.4902 23.2673 
C -9.6232 9.78711 12.9247 
C -13.8101 7.83297 11.2741 
F -8.61327 10.5725 13.2947 
F -10.4783 10.0449 13.8858 
F -14.5697 8.47167 10.3494 
F -14.127 8.30882 12.4559 
F -14.1352 6.56047 11.2942 
F -9.21085 8.56184 13.1058 
N -11.6138 9.3713 11.3047 
O -9.29817 9.66627 10.2112 
O -11.4769 6.93535 11.9366 
O -10.4465 11.5935 11.2247 
O -11.9749 7.48737 9.59527 
S -10.2537 10.1409 11.1967 
S -12.0046 7.86137 10.9661 
C 22.3424 7.75209 1.72395 
C 25.657 3.78311 2.53379 
F 23.3339 8.60949 1.73397 
F 24.8786 3.39839 3.56678 
F 25.3952 2.93741 1.50386 
F 26.9444 3.466 2.8409 
F 21.3043 8.22842 2.29042 
F 21.982 7.63579 0.479096 
N 23.9089 5.55878 1.70035 
O 21.4814 5.4012 1.85321 
O 22.7941 6.21007 3.80436 
O 26.2804 5.75051 0.87226 
O 25.9025 6.26009 3.13933 
S 22.6539 6.01475 2.40062 
S 25.4559 5.53854 2.01776 
C -27.2012 -21.7341 -9.5618 
C -26.62 -18.9534 -12.9227 
F -27.3042 -22.6363 -8.67612 
F -28.3452 -21.0267 -9.58057 
F -26.9836 -22.3482 -10.7483 
F -27.3988 -17.9801 -12.5354 
F -26.2736 -18.567 -14.0979 
F -27.433 -19.929 -13.1176 
N -26.0975 -19.5884 -10.4585 
O -24.6352 -21.4205 -9.37941 
O -26.1258 -20.1018 -7.98391 
O -24.4966 -18.0991 -11.7951 
O -24.6652 -20.5374 -12.3992 
S -25.8113 -20.6224 -9.29798 
S -25.2703 -19.3521 -11.816 
C 6.74598 -29.4819 19.5053 
C 8.7178 -32.441 15.9952 
F 6.80712 -30.5928 20.272 
F 7.71986 -32.4347 15.1136 
F 9.78839 -32.9177 15.4018 
F 8.25364 -33.346 16.8806 
F 5.72149 -28.8368 19.8866 
F 7.78456 -28.6876 19.747 
N 7.73999 -30.7867 17.6205 
O 5.23783 -30.4771 17.5746 
O 6.69156 -28.5075 17.0852 
O 10.2588 -31.0068 17.3853 
O 8.95493 -29.9178 15.5245 
S 6.54559 -29.809 17.7011 
S 9.02197 -30.7456 16.7202 
C -18.7784 -11.6787 27.0841 
C -14.5993 -8.91337 26.7441 
F -19.4392 -12.7661 27.467 
F -19.3548 -10.7456 27.8358 
F -14.2867 -9.66191 27.7898 
F -13.9581 -9.39196 25.7087 
F -14.2533 -7.65671 26.8525 
F -19.124 -11.4642 25.8424 
N -16.6138 -10.607 26.2911 
O -16.6128 -11.3246 28.7026 
O -16.9506 -8.55854 27.805 
O -16.4426 -13.0206 26.8863 
O -16.7955 -8.30874 25.3123 
S -16.9206 -11.7159 27.3032 
S -16.4685 -9.04797 26.5234 
C -7.40175 18.6764 10.4884 
C -9.86352 20.9263 14.43 
F -6.52069 17.7952 10.2488 
F -8.53944 18.1688 10.0247 
F -7.10998 19.8025 9.77331 
F -9.01341 20.4557 15.2842 
F -10.8989 20.15 14.5311 
F -10.2719 22.0953 14.9624 
N -8.8241 19.6817 12.3497 
O -6.308 19.7534 12.6204 
O -10.1695 21.7634 11.8419 
O -8.01886 22.0939 12.8876 
O -7.58915 17.6282 12.9392 
S -7.48875 18.9558 12.3463 
S -9.1844 21.1416 12.7139 
C -32.0955 -16.7291 -12.2793 
C -35.051 -19.7944 -11.2391 
F -31.6009 -15.6271 -11.7717 
F -31.4547 -16.9857 -13.3973 
F -34.351 -19.0567 -10.4386 
F -36.0496 -20.2949 -10.5865 
F -34.2411 -20.81 -11.5258 
F -31.8803 -17.7594 -11.438 
N -34.299 -17.9213 -12.9774 
O -33.9381 -15.4352 -13.4061 
O -36.8051 -18.0907 -12.2709 
O -34.3548 -16.1529 -11.106 
O -35.8028 -19.76 -13.7838 
S -33.9536 -16.512 -12.447 
S -35.5831 -18.7791 -12.7278 
C 17.8914 22.6346 -21.7966 
C 13.8497 23.9313 -24.304 
F 17.8669 22.2452 -20.5274 
F 12.7551 23.495 -23.6456 
F 14.1754 22.7557 -24.8463 
F 13.4592 24.7997 -25.246 
F 17.9478 23.9662 -21.7506 
F 18.9969 22.1318 -22.3359 
N 15.3412 23.1135 -22.4165 
O 16.008 20.8083 -21.8467 
O 16.8977 21.7359 -24.0157 
O 14.6167 25.5768 -22.5801 
O 16.2202 24.7551 -24.2051 
S 16.3839 21.9621 -22.6626 
S 15.2054 24.4666 -23.2649 
C -26.7982 -6.06831 4.72393 
C -25.0771 -10.9973 5.32833 
F -26.7917 -4.74464 4.86827 
F -23.8091 -10.7867 5.03783 
F -25.7363 -11.0972 4.15569 
F -25.1742 -12.2481 5.86443 
F -28.0328 -6.37813 4.86003 
F -26.4522 -6.47451 3.54135 
N -25.8819 -8.44619 5.47563 
O -24.3656 -6.45527 5.63292 
O -26.2995 -6.57679 7.12976 
O -27.328 -10.1781 6.59396 
O -25.0794 -9.69199 7.47368 
S -25.7041 -6.91944 5.87537 
S -25.9493 -9.72345 6.37004 
C -17.591 -11.7513 -16.813 
C -15.8316 -14.0912 -13.0847 
F -18.3605 -11.8211 -17.8349 
F -17.0335 -10.529 -16.7059 
F -16.5907 -12.5626 -17.0581 
F -14.684 -13.6235 -12.5479 
F -15.5513 -14.2266 -14.3701 
F -15.974 -15.337 -12.576 
N -17.3489 -12.2523 -14.1807 
O -19.0345 -13.4365 -15.7267 
O -18.403 -14.0124 -12.6415 
O -17.0101 -12.2131 -11.7199 
O -19.3492 -11.0124 -15.0817 
S -18.5069 -12.1532 -15.269 
S -17.3161 -13.091 -12.8442 
C -30.3583 2.98597 -9.79311 
C -26.0348 0.352154 -9.26795 
F -30.8148 1.87387 -9.15467 
F -31.373 3.53345 -10.4233 
F -25.8183 0.389556 -10.5688 
F -25.869 -0.885213 -8.82445 
F -25.108 1.19747 -8.87129 
F -30.0326 3.75655 -8.80957 
N -27.971 2.24829 -9.59987 
O -28.4709 3.85231 -11.4032 
O -29.2655 1.58482 -11.7178 
O -28.6418 -0.174486 -9.16075 
O -27.5985 1.1743 -7.42969 
S -28.8458 2.63852 -10.8021 
S -27.7358 0.878756 -8.79003 
C 10.2394 -14.695 -29.4638 
C 7.68266 -11.4944 -32.567 
F 11.0649 -13.7776 -28.972 
F 6.74605 -11.2109 -33.4743 
F 8.79377 -10.9744 -33.139 
F 7.55001 -10.8288 -31.4576 
F 10.2769 -15.609 -28.5418 
F 10.8275 -15.3988 -30.4049 
N 8.80382 -13.3731 -31.2048 
O 7.8906 -15.4772 -29.9513 
O 8.24732 -13.2991 -28.7678 
O 6.47195 -13.7341 -31.992 
O 8.37797 -13.8475 -33.5953 
S 8.57472 -14.1788 -29.8882 
S 7.79379 -13.3277 -32.3578 
C -18.8745 7.63699 10.762 
C -19.1954 2.68793 12.227 
F -19.2767 6.96276 9.69606 
F -18.1172 2.95268 12.8704 
F -19.0385 1.49893 11.6015 
F -20.1854 2.52056 13.0875 
F -19.8593 8.42881 11.0418 
F -17.8463 8.36675 10.3871 
N -19.5671 5.42274 11.9447 
O -17.03 5.973 11.75 
O -18.5678 7.14357 13.3484 
O -18.6207 3.92162 10.0408 
O -21.0087 3.8152 10.6825 
S -18.3789 6.42192 12.0957 
S -19.6262 4.08827 11.0502 
C -21.1923 -19.6014 27.5631 
C -23.0209 -23.947 26.0385 
F -20.5295 -19.9337 26.499 
F -20.3461 -19.1519 28.506 
F -21.9413 -18.5821 27.2212 
F -24.3599 -23.8413 25.9697 
F -22.7043 -24.3993 27.2546 
F -22.6526 -24.8632 25.1666 
N -22.894 -21.4505 26.8506 
O -21.2496 -21.9648 28.6547 
O -22.8419 -22.084 24.3592 
O -20.8844 -22.6039 25.7186 
O -23.1636 -20.4846 29.08 
S -22.2179 -21.0501 28.1807 
S -22.2976 -22.3308 25.6693 
C 38.8712 -19.1928 18.6399 
C 36.0809 -21.2639 15.2342 
F 39.8261 -18.2428 18.7131 
F 39.4198 -20.3176 18.1791 
F 38.5111 -19.405 19.8725 
F 36.7829 -22.3362 15.4465 
F 36.7898 -20.4279 14.4948 
F 35.1084 -21.6528 14.4103 
N 36.9127 -20.0703 17.2505 
O 38.1537 -18.0792 16.4031 
O 36.7164 -17.773 18.4211 
O 34.8735 -21.5499 17.5362 
O 34.6628 -19.3805 16.3054 
S 37.48 -18.6639 17.5604 
S 35.4608 -20.4532 16.7916 
C -48.3583 -11.2857 20.5968 
C -45.2962 -14.9985 22.1511 
F -49.3979 -11.6562 21.2815 
F -47.7453 -10.2781 21.187 
F -44.1973 -15.5103 22.6322 
F -46.3143 -15.5994 22.7687 
F -45.3168 -15.3981 20.8518 
F -48.6948 -10.809 19.4298 
N -46.783 -12.8105 21.9091 
O -46.2608 -12.2279 19.3653 
O -48.1776 -13.6785 19.9848 
O -45.076 -12.9198 23.8118 
O -44.2193 -12.7107 21.4287 
S -47.2372 -12.6424 20.3761 
S -45.3052 -13.1318 22.3711 
C 8.67778 22.7435 17.8149 
C 5.42092 22.0157 21.5021 
F 7.74175 21.9125 17.4165 
F 5.30891 23.2834 21.962 
F 4.2331 21.3943 21.6402 
F 6.30697 21.4037 22.3486 
F 9.82359 22.1262 17.5984 
F 8.65508 23.8017 17.0362 
N 7.02475 23.2817 19.795 
O 9.00786 24.5653 19.8026 
O 9.12101 22.1584 20.3852 
O 6.59541 20.6916 19.4502 
O 4.77451 22.3399 18.9845 
S 8.52543 23.2361 19.6006 
S 6.02677 22.0065 19.7119 
C -7.72884 12.0038 3.22765 
C -6.73362 10.6276 7.08275 
F -8.06527 12.6269 2.09482 
F -8.15363 12.8144 4.19738 
F -8.4857 10.9205 3.29337 
F -6.67515 10.8384 8.4302 
F -6.51271 9.36921 6.92515 
F -7.94455 10.8532 6.61679 
N -5.78459 10.8282 4.61901 
O -5.13376 12.8198 3.12188 
O -5.77876 10.7315 2.07189 
O -5.91718 12.8189 6.17616 
O -4.25272 11.0487 6.55274 
S -5.99517 11.6296 3.23055 
S -5.48751 11.4715 6.01405 
C 16.9531 7.21871 21.0606 
C 15.6375 10.2863 17.3237 
F 15.8566 6.80724 21.6807 
F 17.1301 6.48942 19.9109 
F 15.2795 10.2216 16.0508 
F 14.8501 11.0349 18.032 
F 16.8217 10.8946 17.323 
F 18.0032 7.04076 21.8194 
N 15.517 8.69253 19.4599 
O 16.3795 9.65392 21.6575 
O 17.9535 9.23805 19.8731 
O 14.3983 8.06632 17.2582 
O 16.8892 7.94918 17.4857 
S 16.6976 8.9658 20.4439 
S 15.623 8.51764 17.9006 
C -36.4274 34.697 28.1307 
C -40.2711 33.2643 25.8991 
F -36.9134 33.4913 28.4943 
F -35.0937 34.6693 27.9687 
F -36.6897 35.4053 29.2857 
F -40.5058 32.9197 24.566 
F -41.296 32.9067 26.6768 
F -39.193 32.5962 26.2743 
N -38.7804 35.1401 26.9398 
O -36.7765 34.3415 25.5415 
O -36.8895 36.6825 26.4584 
O -39.7256 35.5513 24.658 
O -41.2523 35.542 26.5457 
S -37.2614 35.2869 26.5565 
S -39.9912 35.0453 25.9783 
C 33.9136 -16.2025 27.7313 
C 32.9925 -14.041 32.3222 
F 34.3941 -17.3356 27.1526 
F 34.1539 -14.6298 32.6303 
F 32.0306 -14.6193 33.0917 
F 33.0711 -12.8004 32.6252 
F 32.5806 -16.2991 27.6769 
F 34.1226 -15.2193 26.9208 
N 33.9404 -14.663 29.8665 
O 36.0163 -15.8749 29.2312 
O 34.1725 -17.1518 30.2008 
O 31.6311 -15.4697 30.6496 
O 32.0122 -13.113 30.1539 
S 34.6081 -16.0087 29.4346 
S 32.5487 -14.3691 30.6092 
C 17.7938 4.92908 2.92449 
C 15.9951 0.979625 0.686637 
F 17.241 5.33123 4.0954 
F 19.0327 5.47246 2.8535 
F 17.0579 5.527 1.95632 
F 16.0018 0.635643 -0.648302 
F 17.0625 0.436569 1.30854 
F 14.997 0.271918 1.10851 
N 16.4727 2.74871 2.4525 
O 18.8825 2.90293 1.69416 
O 14.3284 2.91367 1.03584 
O 16.454 3.54866 0.0402326 
O 18.3702 2.6922 4.07919 
S 17.9482 3.12766 2.76109 
S 15.7847 2.75699 1.04873 
C 10.8732 -18.2315 -15.2201 
C 5.93282 -18.0586 -15.1271 
F 11.6532 -19.2937 -15.2403 
F 5.5924 -17.501 -14.0852 
F 4.89279 -17.9272 -15.8756 
F 6.14844 -19.3432 -14.9113 
F 10.7154 -17.9747 -16.4702 
F 11.595 -17.2121 -14.6912 
N 8.48633 -17.2238 -14.7431 
O 9.63322 -18.639 -12.9515 
O 8.73512 -19.6849 -14.9419 
O 6.81944 -15.8173 -15.994 
O 7.6372 -17.8887 -17.1302 
S 9.30627 -18.5177 -14.3501 
S 7.35085 -17.1715 -15.8654 
C -26.7061 7.23502 14.0404 
C -26.6351 11.5636 16.6205 
F -26.1674 6.37212 13.186 
F -26.2867 12.088 17.8447 
F -25.9343 12.2226 15.6884 
F -27.9009 11.8444 16.352 
F -28.0241 7.20058 13.8448 
F -26.5419 6.80878 15.2358 
N -26.8829 9.62199 15.0553 
O -24.7014 8.74466 13.9247 
O -26.5703 9.32637 12.6051 
O -27.2109 9.26447 17.5452 
O -24.9648 9.75831 16.7501 
S -26.1034 8.92234 13.8576 
S -26.3648 9.82377 16.5121 
C -16.7782 -4.86418 -29.8323 
C -20.7053 -7.97175 -29.3544 
F -16.4616 -3.75472 -30.4197 
F -16.8374 -4.65357 -28.509 
F -15.697 -5.63881 -29.964 
F -20.7517 -8.76958 -30.3994 
F -21.4741 -7.00038 -29.6908 
F -21.3593 -8.64784 -28.4241 
N -18.3206 -7.00428 -30.0367 
O -19.2962 -4.62727 -30.0259 
O -19.133 -6.57431 -27.6892 
O -18.3541 -8.81525 -28.3435 
O -18.1623 -5.49463 -31.9783 
S -18.3195 -5.54027 -30.5076 
S -19.0133 -7.56262 -28.7276 
C 11.3628 37.791 -15.6799 
C 6.62177 36.577 -15.8759 
F 11.4415 36.4411 -15.6106 
F 12.1645 38.1914 -16.6629 
F 6.77927 37.146 -17.0735 
F 5.88618 37.3557 -15.076 
F 5.88235 35.4903 -16.1435 
F 11.8575 38.292 -14.5463 
N 8.83602 37.7584 -14.9956 
O 9.711 39.8642 -15.8166 
O 8.87775 35.4637 -16.1396 
O 9.43693 38.1817 -17.4331 
O 7.94097 35.6709 -13.8426 
S 9.72208 38.4721 -16.0713 
S 8.31807 36.2823 -15.1152 
C 22.8376 -6.39378 -20.5297 
C 20.7336 -3.29471 -22.4645 
F 22.7002 -7.20165 -21.5846 
F 23.7452 -6.92272 -19.7221 
F 23.2948 -5.3172 -21.0952 
F 19.7663 -3.83964 -23.1002 
F 20.8578 -2.03087 -22.9558 
F 21.836 -3.879 -22.7986 
N 20.5868 -4.98196 -20.7043 
O 20.5615 -7.24522 -19.6267 
O 21.7538 -5.43201 -18.381 
O 21.5784 -2.75255 -20.0992 
O 19.1987 -2.88017 -20.5219 
S 21.2825 -5.98008 -19.6582 
S 20.5041 -3.45494 -20.6993 
C 21.6216 37.2714 12.3841 
C 17.9953 39.5473 10.3448 
F 21.2048 38.1488 13.3597 
F 18.2336 40.3382 9.3232 
F 16.7113 39.3249 10.3413 
F 18.1407 40.1077 11.5268 
F 20.7852 36.2323 12.4659 
F 22.7531 36.8601 12.8911 
N 20.3657 38.6595 10.5885 
O 22.1934 36.9605 9.85173 
O 22.7766 39.0269 11.0702 
O 18.8917 37.5713 8.85858 
O 18.5715 37.1991 11.2412 
S 21.7961 38.0214 10.7886 
S 19.0395 38.0423 10.2136 
C -29.9338 -1.64931 -42.8143 
C -32.6419 -0.0466897 -39.9846 
F -29.1259 -0.826153 -43.4928 
F -33.0339 -1.32366 -39.9683 
F -32.8513 0.438986 -41.1871 
F -33.5791 0.497893 -39.2012 
F -31.1622 -1.3792 -43.1773 
F -29.5787 -2.81339 -43.3125 
N -30.2178 -0.121795 -40.7217 
O -30.332 -2.73629 -40.4643 
O -28.2163 -1.52891 -40.985 
O -30.8952 -0.674293 -38.2281 
O -30.9531 1.61232 -39.0305 
S -29.6497 -1.58486 -41.0354 
S -30.968 0.220787 -39.3656 
C -13.0471 6.24956 2.54737 
C -12.1526 9.98844 0.587602 
F -13.812 6.39621 1.42003 
F -11.7757 6.09072 2.12872 
F -11.2585 10.7868 0.121718 
F -11.9491 8.86549 -0.0661355 
F -13.3104 10.4922 0.263519 
F -13.4217 5.11572 3.19293 
N -13.1867 8.85339 2.64812 
O -12.357 7.41981 4.6559 
O -10.6508 9.11486 2.52074 
O -14.6962 7.41722 4.03025 
O -12.1283 11.0965 2.89265 
S -13.3442 7.61826 3.61114 
S -11.9637 9.7519 2.40955 
C -9.85049 5.16478 -4.05456 
C -7.85301 9.78536 -5.13443 
F -9.21343 4.87748 -5.15035 
F -10.8704 4.33219 -4.06284 
F -7.05312 10.1695 -6.08938 
F -9.04991 10.3478 -5.3632 
F -7.34835 10.2749 -4.04796 
F -9.02897 4.83748 -3.1148 
N -8.94543 7.5368 -3.96989 
O -11.1141 7.16395 -5.26591 
O -11.1596 7.02658 -2.8411 
O -8.25547 7.63117 -6.40224 
O -6.5693 7.59376 -4.61236 
S -10.3705 6.93052 -4.03347 
S -7.91791 7.93146 -5.0082 
C 19.6676 -11.9852 6.3879 
C 15.9031 -12.3871 3.09447 
F 20.2075 -13.0891 5.88119 
F 20.4959 -11.0588 5.95902 
F 16.029 -13.5978 3.57653 
F 15.5652 -12.4605 1.86303 
F 14.8812 -11.7649 3.7555 
F 19.8625 -12.1085 7.6893 
N 17.9876 -12.2889 4.47076 
O 17.3078 -12.8674 6.84311 
O 18.3079 -12.0142 2.06923 
O 17.5829 -10.4501 6.33539 
O 17.2841 -10.0875 3.22926 
S 17.8929 -11.8257 5.99428 
S 17.5673 -11.5128 3.20326 
C 24.9278 9.92008 -20.5548 
C 21.9158 13.4625 -21.0688 
F 25.7978 8.95829 -20.6536 
F 20.7022 13.1115 -20.7114 
F 21.9281 14.6108 -21.651 
F 22.5222 13.7592 -19.9285 
F 25.5528 10.8959 -21.2303 
F 24.8726 10.1595 -19.2976 
N 22.6417 10.9039 -21.0742 
O 23.6746 9.13196 -22.618 
O 22.765 8.46561 -20.45 
O 24.0553 12.7234 -22.1266 
O 21.9503 12.0535 -23.1171 
S 23.3299 9.49552 -21.281 
S 22.7449 12.1583 -22.0051 
C -0.926153 -15.6856 -36.4341 
C -4.33232 -12.0717 -35.4366 
F -0.704095 -14.9365 -37.5014 
F -1.71259 -16.6199 -36.8457 
F -3.36826 -11.4673 -34.7907 
F -4.05681 -11.9824 -36.7006 
F -5.47385 -11.484 -35.1993 
F 0.191047 -16.2285 -36.022 
N -3.12725 -14.477 -35.6891 
O -1.84402 -15.8681 -34.0235 
O -0.965397 -13.6732 -34.8046 
O -4.27887 -13.6774 -33.4813 
O -5.64421 -14.3805 -35.3338 
S -1.76638 -14.8393 -35.0457 
S -4.38287 -13.8283 -34.8632 
C -4.76801 -7.80368 24.9424 
C -7.99796 -11.6443 25.6404 
F -5.70176 -7.02904 25.4371 
F -8.91864 -10.7119 25.544 
F -8.6404 -12.7195 25.1046 
F -7.79562 -11.7803 26.9289 
F -3.67362 -7.10235 24.9119 
F -5.1158 -7.98298 23.6779 
N -6.05471 -9.92936 25.4822 
O -3.46638 -10.006 25.0998 
O -4.40281 -9.03659 27.1648 
O -6.86477 -11.029 23.3707 
O -5.75151 -12.4872 25.0424 
S -4.57833 -9.42497 25.7866 
S -6.46548 -11.2695 24.7331 
C -15.676 -25.8839 23.8551 
C -12.3185 -28.0079 22.6237 
F -14.8996 -25.2546 24.6763 
F -12.5127 -27.9171 23.9247 
F -13.1023 -28.9345 22.2064 
F -11.0936 -28.5278 22.5456 
F -16.9366 -25.7765 24.2364 
F -15.3338 -27.159 23.9808 
N -14.2512 -26.5628 21.762 
O -16.5658 -25.5802 21.401 
O -14.8531 -24.0838 22.2334 
O -12.0522 -25.3905 22.612 
O -12.1647 -26.6377 20.3832 
S -15.3121 -25.4561 22.1003 
S -12.6559 -26.4054 21.7382 
C 12.3364 11.4691 24.2276 
C 11.6237 7.23251 25.8399 
F 12.5837 11.4635 22.9048 
F 11.335 7.92767 26.8838 
F 12.9286 7.32497 25.5968 
F 11.4393 5.96705 26.1765 
F 13.3519 10.8042 24.7357 
F 12.2984 12.7641 24.5302 
N 11.207 9.16429 24.0712 
O 10.8574 10.6502 26.12 
O 9.73031 11.1929 23.9267 
O 9.26293 7.77901 24.9554 
O 10.7941 6.82105 23.3527 
S 10.7779 10.512 24.6892 
S 10.5869 7.79003 24.42 
C 37.6832 -27.4722 27.5397 
C 36.281 -32.5872 28.0392 
F 37.4835 -26.3948 26.8251 
F 37.7273 -27.1482 28.8129 
F 35.937 -32.4914 29.2938 
F 36.7024 -33.8094 27.8461 
F 35.1692 -32.4589 27.2981 
F 38.8742 -27.8406 27.2344 
N 36.9817 -29.9831 28.1189 
O 35.226 -28.2154 27.7892 
O 38.7142 -31.6467 28.5526 
O 36.5591 -28.9411 25.8467 
O 37.9012 -31.5546 26.2251 
S 36.4496 -28.7953 27.2618 
S 37.6073 -31.342 27.63 
C 4.70432 4.89335 42.1374 
C 4.98399 6.32307 37.3542 
F 4.97513 6.22783 42.1773 
F 3.41313 4.72276 42.4431 
F 5.30564 4.35266 43.1753 
F 4.25976 5.49933 36.6002 
F 6.25609 6.0367 37.2351 
F 4.76325 7.49667 36.8507 
N 4.47995 5.00515 39.488 
O 4.33471 2.89847 40.6985 
O 5.65245 7.18251 39.8808 
O 3.25903 7.07431 39.2577 
O 6.54968 3.98259 40.4719 
S 5.11923 4.07975 40.6118 
S 4.56351 6.49976 39.2309 
C -34.9426 14.3685 -24.0211 
C -35.6821 9.2686 -23.7946 
F -34.4217 15.4483 -24.7349 
F -36.2675 14.527 -23.9374 
F -36.9617 9.55677 -23.4979 
F -35.5969 9.0463 -25.1295 
F -35.3697 8.0949 -23.2637 
F -34.5316 14.4065 -22.7359 
N -35.1282 11.7588 -23.9839 
O -33.0253 12.8773 -24.9505 
O -35.1593 12.9529 -26.2354 
O -33.1499 10.2019 -23.6171 
O -34.7135 10.7197 -21.7761 
S -34.465 12.8135 -24.9554 
S -34.5039 10.5731 -23.2092 
C 20.3669 -15.6856 -9.83083 
C 19.7277 -20.1513 -7.771 
F 20.5642 -14.3688 -9.96306 
F 20.2568 -16.1425 -11.1238 
F 19.1474 -15.7149 -9.32065 
F 18.94 -20.1721 -8.88259 
F 20.8355 -20.7368 -8.10006 
F 19.0004 -20.8931 -6.87735 
N 20.9309 -17.9671 -8.48441 
O 21.6498 -15.6622 -7.67383 
O 22.7628 -16.6732 -9.58582 
O 20.7957 -18.5058 -5.94974 
O 18.7323 -17.8584 -7.22143 
S 21.5826 -16.5524 -8.78812 
S 20.071 -18.4616 -7.25071 
C 26.9719 -1.57617 9.3902 
C 26.2205 -2.7205 14.1658 
F 26.2282 -2.34351 8.6072 
F 24.9051 -2.47612 14.2151 
F 26.9262 -1.59832 14.5091 
F 26.5578 -3.57264 15.1542 
F 28.1328 -2.27311 9.69794 
F 27.3184 -0.646507 8.51229 
N 25.8547 -2.44009 11.6134 
O 27.1774 -0.221028 11.5862 
O 24.946 -0.437469 10.3932 
O 28.1682 -2.89655 12.5601 
O 26.4401 -4.69284 12.4976 
S 26.1592 -0.998267 10.9654 
S 26.747 -3.27257 12.5284 
C -10.8848 -5.48084 3.49647 
C -11.8911 -0.945573 4.84755 
F -12.0927 -6.02844 3.35152 
F -10.6119 -5.0534 2.23872 
F -10.58 -1.09887 5.04068 
F -12.4603 -1.19142 6.00716 
F -12.126 0.329742 4.5376 
F -10.0629 -6.42995 3.7391 
N -12.1799 -3.40437 4.35838 
O -9.64205 -3.48754 4.32538 
O -10.9891 -4.78102 5.95142 
O -13.8232 -1.68782 3.50392 
O -11.6472 -1.83265 2.44634 
S -10.8537 -4.15121 4.67694 
S -12.445 -2.05658 3.62136 
C -10.0058 15.8879 17.5853 
C -13.591 17.2475 14.1559 
F -10.6622 14.7288 17.4685 
F -9.45471 15.8186 18.7801 
F -9.02253 15.7565 16.685 
F -14.8293 17.2311 13.7221 
F -12.8824 16.6573 13.182 
F -13.1926 18.4828 14.0563 
N -11.8967 16.8142 16.1264 
O -11.9037 17.1855 18.6644 
O -10.3516 18.4611 17.2128 
O -13.6451 15.2066 15.6123 
O -14.3458 17.261 16.7097 
S -11.2118 17.284 17.3954 
S -13.3935 16.5628 15.9029 
C 22.8244 -31.7862 1.75492 
C 22.0004 -35.2859 0.209021 
F 23.993 -32.4384 2.03457 
F 23.0332 -30.468 1.67017 
F 20.8392 -35.3326 -0.441352 
F 22.6747 -36.4165 -0.0478084 
F 22.6289 -34.2928 -0.401268 
F 22.5714 -32.1035 0.48516 
N 21.1157 -33.6265 1.94051 
O 20.3867 -31.3559 2.46131 
O 20.8417 -36.0676 2.33424 
O 21.784 -32.5026 4.07287 
O 23.0918 -35.1615 2.60595 
S 21.3858 -32.3491 2.69521 
S 21.7814 -35.0279 2.03873 
C -35.2569 27.8255 15.1571 
C -35.3784 23.479 15.5442 
F -34.3729 28.7935 15.3293 
F -36.4584 28.4463 15.0549 
F -34.1175 23.7407 15.8591 
F -35.5784 22.1634 15.7617 
F -36.1277 24.1096 16.4358 
F -35.3495 27.0926 16.2764 
N -35.8531 25.5903 14.0191 
O -35.0234 27.5139 12.5642 
O -37.0548 23.5326 13.5974 
O -33.4636 26.3847 14.0294 
O -34.7773 23.5923 13.0926 
S -34.8058 26.7204 13.7289 
S -35.8103 24.08 13.8814 
C -10.7045 -28.7762 -2.01538 
C -12.3968 -30.7987 1.36906 
F -10.172 -28.4229 -0.867618 
F -10.0392 -28.0521 -2.95293 
F -12.8685 -31.9435 0.9088 
F -12.5203 -30.8395 2.67382 
F -11.0818 -30.7551 1.12472 
F -10.3799 -30.0967 -2.19168 
N -12.8708 -29.6215 -0.74372 
O -12.9701 -29.0604 -3.22516 
O -14.5028 -29.4419 1.02611 
O -12.6756 -27.1784 -1.55077 
O -12.3326 -28.1809 1.3415 
S -12.5491 -28.5859 -1.92165 
S -13.1041 -29.2941 0.697139 
C 28.7774 -13.8999 -41.8736 
C 29.2317 -16.6957 -46.0353 
F 27.5365 -14.2264 -42.1079 
F 29.0498 -14.1778 -40.5895 
F 28.8668 -12.5946 -42.0034 
F 30.0921 -16.1053 -46.7662 
F 28.5604 -17.5794 -46.8183 
F 29.8626 -17.4424 -45.1957 
N 29.1069 -14.6061 -44.3249 
O 31.1085 -14.1514 -42.9813 
O 29.754 -16.1791 -42.344 
O 27.4924 -14.8504 -46.2139 
O 27.2842 -16.3325 -44.3482 
S 29.8406 -14.7923 -42.9609 
S 28.1351 -15.5337 -45.1591 
C 8.46267 28.1907 -18.6056 
C 8.10523 25.7522 -22.9359 
F 7.15624 28.0174 -18.6179 
F 8.76875 28.2904 -17.3389 
F 8.70623 29.3968 -19.1353 
F 8.38403 24.812 -23.8647 
F 7.08363 25.2288 -22.1864 
F 7.49107 26.7561 -23.5857 
N 8.91867 27.0383 -20.8815 
O 8.69615 25.6645 -18.7025 
O 10.7106 26.9714 -19.0566 
O 10.1223 27.1706 -23.1552 
O 10.3058 25.0756 -21.8094 
S 9.30668 26.7898 -19.3387 
S 9.61142 26.3171 -22.0995 
C 12.7229 17.8561 -2.06101 
C 9.30815 14.6189 -3.52716 
F 13.8898 17.8791 -1.39019 
F 12.9471 18.8168 -2.99371 
F 11.8056 18.3737 -1.29536 
F 8.0438 14.1973 -3.32841 
F 9.60544 14.5733 -4.80981 
F 10.199 13.874 -2.93153 
N 10.9007 16.5996 -3.35554 
O 12.2419 15.2117 -1.72865 
O 13.2588 16.2169 -3.8138 
O 9.32017 16.1771 -1.42694 
O 8.54211 17.1048 -3.57304 
S 12.266 16.2348 -2.78101 
S 9.4902 16.3302 -2.83539 
C -7.09017 19.3753 21.8868 
C -4.02166 16.7453 22.636 
F -6.27862 20.3621 21.5613 
F -6.86821 18.4617 20.9664 
F -2.87668 17.2762 22.2378 
F -3.77897 15.432 22.7899 
F -4.87797 16.9003 21.6294 
F -8.31052 19.8585 21.6487 
N -5.4145 18.6523 23.7233 
O -7.48206 19.9115 24.3576 
O -5.23612 16.402 24.9776 
O -7.7107 17.6196 23.5534 
O -3.37782 18.0518 24.8532 
S -6.93024 18.8062 23.5747 
S -4.5567 17.4377 24.2115 
C 5.13745 -12.2031 11.4712 
C 2.67088 -15.8645 13.5768 
F 5.64003 -10.9914 11.7587 
F 6.14378 -13.0092 11.4584 
F 2.84913 -17.089 14.016 
F 1.35564 -15.7471 13.226 
F 2.87736 -15.0084 14.6176 
F 4.72741 -12.1923 10.2594 
N 3.23658 -13.9917 11.9084 
O 4.52274 -12.6987 13.8817 
O 4.99537 -15.7207 12.6152 
O 2.95376 -11.4548 12.4217 
O 3.21084 -16.2971 11.0659 
S 3.82295 -12.6517 12.6303 
S 3.69501 -15.4272 12.0985 
C 5.03012 19.8443 25.8169 
C 5.95909 15.8444 24.3429 
F 4.29007 18.8122 25.8651 
F 5.0133 15.5454 23.4529 
F 6.55211 14.7526 24.7696 
F 5.28773 16.3335 25.4182 
F 4.49602 20.6448 24.9027 
F 4.94168 20.4737 27.0085 
N 6.57828 18.3683 24.185 
O 7.52241 20.4463 25.0397 
O 7.05103 18.514 26.6084 
O 8.41415 16.5052 24.2468 
O 7.02483 16.9253 22.256 
S 6.72628 19.2498 25.4175 
S 7.14117 17.0294 23.7147 
C 23.6486 1.31437 18.4468 
C 20.4776 3.29674 21.7723 
F 24.7075 1.96406 18.0206 
F 24.096 0.39568 19.3341 
F 23.3152 0.580362 17.3253 
F 19.8283 3.19193 22.8997 
F 19.7978 2.64839 20.7815 
F 20.3845 4.57973 21.4481 
N 22.6865 2.89634 20.3389 
O 21.2747 1.03176 19.484 
O 21.7723 3.07463 18.0617 
O 22.7524 3.77916 22.7236 
O 22.2703 1.43719 22.3581 
S 22.1516 2.13858 19.1022 