ITEM: TIMESTEP
0
ITEM: NUMBER OF ATOMS
30208
ITEM: BOX BOUNDS pp pp pp
0.00000 64.05027
0.00000 64.05027
0.00000 64.05027
ITEM: ATOMS element vx vy vz
N -0.284321E-02 -0.318816E-03  0.442817E-02
C -0.890176E-03 -0.375752E-02  0.176634E-03
N -0.426701E-02  0.115270E-03  0.586664E-02
C  0.147035E-02  0.523505E-03  0.805772E-02
C -0.102448E-01  0.126989E-02  0.516112E-02
C  0.173117E-02 -0.545023E-02  0.457420E-02
H  0.798274E-02 -0.625717E-02  0.521809E-02
C -0.382373E-02 -0.108272E-01 -0.338507E-02
H  0.688372E-02  0.133999E-02  0.405889E-02
H -0.134287E-01  0.271432E-02 -0.101283E-01
H  0.165066E-01 -0.224406E-02 -0.989840E-03
H  0.150698E-01 -0.837247E-02 -0.410695E-02
H -0.122127E-01 -0.203536E-01 -0.148889E-01
C  0.492174E-02 -0.482379E-02 -0.166984E-02
H -0.311228E-02 -0.189960E-01  0.715440E-03
H -0.209951E-01 -0.381241E-02  0.171768E-01
C -0.246483E-02 -0.237330E-02 -0.307606E-02
H -0.147299E-01  0.536228E-02 -0.584094E-02
H -0.921218E-02 -0.744922E-02  0.324560E-02
C  0.375517E-02 -0.249246E-02 -0.305406E-02
H -0.112070E-01  0.729301E-02 -0.117744E-01
H -0.127615E-01  0.171735E-02  0.800069E-02
H  0.462037E-02 -0.232244E-01 -0.122309E-01
H  0.192167E-01  0.344289E-02 -0.438972E-01
H  0.184313E-01  0.889957E-02 -0.104702E-02
X -0.200738E-02  0.368815E-03  0.420024E-02
X  0.519483E-03 -0.513105E-02  0.262084E-03
X -0.365500E-02 -0.137068E-02  0.564674E-02
X  0.967884E-03  0.645973E-03  0.781719E-02
X -0.112445E-01  0.220613E-02  0.537491E-02
X  0.214027E-02 -0.582936E-02  0.487614E-02
X -0.285853E-02 -0.100693E-01 -0.353506E-02
X  0.665431E-02 -0.453484E-02 -0.174991E-02
X -0.111784E-02 -0.234207E-02 -0.353299E-02
X  0.399825E-02 -0.312533E-02 -0.368924E-02
N -0.257703E-02  0.378161E-02  0.569558E-02
C  0.175864E-02 -0.338550E-02 -0.694411E-02
N -0.297039E-02 -0.653036E-02 -0.255682E-02
C -0.501117E-03 -0.654108E-03  0.354622E-02
C  0.246917E-02 -0.852472E-03  0.220526E-02
C  0.616273E-03  0.108618E-02 -0.134040E-02
H  0.201145E-02  0.311275E-02  0.206417E-02
C -0.133554E-02  0.650688E-03 -0.943599E-03
H  0.104941E-01 -0.131644E-02 -0.111534E-02
H  0.229988E-02 -0.354636E-02 -0.307226E-01
H  0.159311E-01 -0.111168E-01 -0.132017E-01
H -0.513268E-02  0.226504E-02  0.785601E-03
H  0.180362E-01 -0.283405E-02  0.230107E-01
C -0.511214E-03  0.289356E-02 -0.314470E-02
H -0.677227E-03 -0.203022E-02 -0.165263E-02
H  0.977423E-03 -0.832395E-02  0.873316E-02
C -0.144815E-02 -0.394509E-02 -0.106944E-03
H -0.586830E-03  0.121321E-01 -0.755994E-02
H -0.651944E-02  0.259385E-01  0.270015E-02
C  0.123225E-02 -0.128406E-03  0.549506E-02
H  0.801405E-02 -0.163217E-01 -0.195102E-02
H -0.183153E-02  0.246281E-02 -0.795584E-02
H -0.424779E-02 -0.212263E-02  0.498697E-02
H  0.284738E-02 -0.496398E-02  0.408790E-02
H -0.209183E-01  0.878282E-02  0.185286E-02
X -0.200368E-02  0.432982E-02  0.540800E-02
X  0.259995E-02 -0.461981E-02 -0.550351E-02
X -0.177329E-02 -0.805275E-02 -0.143024E-02
X -0.158180E-02 -0.141185E-03  0.298786E-02
X  0.178259E-02 -0.192937E-03  0.244067E-02
X  0.501805E-03  0.954339E-03 -0.126085E-02
X  0.356209E-03 -0.558757E-03 -0.491372E-04
X -0.471297E-03  0.879892E-03 -0.362744E-02
X -0.141675E-02 -0.529674E-02 -0.998878E-03
X  0.214771E-02 -0.114255E-02  0.581419E-02
N -0.306743E-02 -0.173871E-02 -0.421924E-02
C  0.339325E-03 -0.212228E-02 -0.150457E-02
N -0.584104E-03 -0.104446E-02  0.468303E-02
C  0.186995E-02 -0.327328E-02  0.745854E-02
C -0.108357E-01  0.290259E-02  0.242282E-02
C  0.825134E-02  0.276185E-02 -0.132997E-02
H  0.262661E-02  0.342703E-01 -0.260310E-01
C  0.503351E-03 -0.161796E-02 -0.291674E-02
H  0.485181E-02  0.111093E-01  0.115868E-01
H -0.162082E-01  0.445426E-02  0.422470E-02
H  0.155348E-01 -0.121341E-01 -0.171485E-01
H  0.299404E-01 -0.957491E-02  0.880284E-02
H -0.108027E-01 -0.608243E-02 -0.124007E-01
C  0.123866E-03  0.193401E-02 -0.400766E-02
H  0.238208E-02 -0.171605E-02 -0.542329E-02
H  0.992516E-02  0.257163E-02  0.470875E-02
C  0.436910E-02  0.137936E-01  0.174681E-02
H -0.973606E-02 -0.129246E-01  0.170950E-01
H  0.683355E-02  0.348930E-01 -0.458753E-02
C -0.312596E-03 -0.352255E-03 -0.205606E-02
H -0.303502E-01  0.169638E-01  0.963560E-02
H  0.349645E-02 -0.565702E-02  0.344719E-02
H  0.634959E-02  0.413375E-03 -0.424798E-02
H -0.778165E-02 -0.321707E-01 -0.342029E-02
H -0.136670E-01  0.403216E-02  0.513545E-03
X -0.346349E-02 -0.139235E-02 -0.378274E-02
X  0.195982E-03 -0.164078E-02 -0.925992E-03
X -0.139780E-02 -0.678970E-03  0.508316E-02
X  0.236409E-02 -0.410322E-02  0.682602E-02
X -0.108303E-01  0.266094E-02  0.195203E-02
X  0.837710E-02  0.334852E-02 -0.110658E-02
X  0.243744E-03 -0.116821E-02 -0.326799E-02
X -0.199678E-03  0.153010E-02 -0.447994E-02
X  0.473669E-02  0.140927E-01  0.173126E-02
X -0.470060E-03 -0.248632E-03 -0.195312E-02
N  0.561171E-02 -0.885124E-03  0.785862E-02
C  0.330340E-02 -0.759761E-02  0.513955E-03
N  0.798503E-02  0.607937E-02 -0.490825E-02
C  0.209276E-02  0.390397E-02 -0.922160E-02
C -0.116397E-02 -0.534105E-02 -0.870305E-03
C  0.784773E-03  0.137500E-02  0.426598E-02
H  0.704325E-02 -0.113628E-02  0.442604E-02
C  0.208523E-02  0.105701E-01  0.419890E-02
H  0.187381E-02 -0.104082E-01 -0.185325E-01
H  0.710593E-02  0.330117E-02  0.309105E-02
H -0.202334E-02 -0.219208E-01  0.514911E-02
H  0.652405E-02 -0.288322E-02 -0.176088E-01
H  0.180114E-02  0.168570E-01 -0.106192E-01
C -0.494018E-02 -0.445689E-02  0.143372E-02
H  0.199164E-01  0.695360E-02  0.111490E-01
H  0.463149E-02  0.967455E-02 -0.395369E-02
C  0.559099E-02 -0.332185E-02  0.812715E-03
H  0.284222E-01  0.858010E-02  0.163383E-01
H -0.833915E-02 -0.452499E-02  0.556778E-04
C  0.425445E-03  0.618686E-02 -0.687940E-04
H  0.145546E-01  0.127239E-02 -0.796210E-02
H -0.291846E-01 -0.147355E-01 -0.901548E-02
H -0.644375E-02  0.167195E-01 -0.751848E-02
H  0.184166E-01  0.923133E-02 -0.139753E-01
H -0.120133E-01  0.118154E-01 -0.685857E-02
X  0.412910E-02 -0.920039E-03  0.978705E-02
X  0.225742E-02 -0.640824E-02  0.633562E-03
X  0.938137E-02  0.596551E-02 -0.692661E-02
X  0.403211E-02  0.266852E-02 -0.103561E-01
X -0.153582E-02 -0.761576E-02  0.141529E-02
X  0.126255E-02  0.104834E-02  0.466475E-02
X  0.263383E-02  0.101946E-01  0.477817E-02
X -0.502354E-02 -0.395737E-02  0.177359E-02
X  0.617664E-02 -0.316439E-02  0.495450E-03
X  0.439706E-03  0.635364E-02 -0.172313E-03
N -0.102448E-02  0.151049E-02  0.591633E-02
C -0.368867E-02 -0.376462E-02  0.770003E-02
N -0.515264E-03 -0.530358E-02 -0.579931E-02
C -0.760737E-03  0.316016E-02 -0.596103E-02
C -0.637355E-02 -0.247117E-02  0.137016E-02
C -0.588269E-02 -0.324533E-02 -0.953710E-03
H -0.789260E-03  0.637955E-02  0.518815E-02
C -0.187996E-02  0.501956E-02 -0.748624E-02
H -0.588760E-02  0.479548E-02 -0.956757E-02
H  0.109984E-01  0.935524E-02 -0.781447E-03
H  0.852641E-02 -0.133081E-01 -0.192698E-01
H -0.595857E-02 -0.552957E-01 -0.195282E-01
H -0.186776E-01  0.708944E-02 -0.211519E-01
C -0.218720E-02 -0.217955E-03 -0.115949E-01
H -0.316466E-01 -0.481696E-01 -0.123711E-01
H -0.176355E-01  0.100924E-01 -0.116089E-03
C -0.684214E-02  0.186915E-02  0.320326E-03
H  0.178075E-01  0.137817E-01 -0.228788E-01
H  0.705611E-02  0.149095E-01 -0.982785E-02
C  0.714977E-02 -0.216996E-02 -0.781078E-02
H -0.555698E-02 -0.116182E-01  0.791428E-02
H  0.127547E-02 -0.595052E-02 -0.166180E-01
H  0.161436E-01 -0.928846E-02 -0.107020E-01
H -0.536500E-02  0.115088E-01 -0.356859E-01
H -0.902017E-02 -0.198299E-01 -0.719702E-02
X -0.596844E-03  0.111535E-02  0.108639E-01
X -0.127330E-03 -0.781105E-02  0.744125E-02
X  0.326833E-02 -0.897063E-02 -0.871139E-02
X -0.304489E-02  0.607736E-02 -0.723900E-02
X -0.878982E-02  0.113667E-03  0.391063E-02
X -0.588800E-02 -0.266822E-02 -0.856798E-03
X -0.775339E-03  0.218777E-02 -0.531362E-02
X -0.491609E-02 -0.258398E-02 -0.116754E-01
X -0.746534E-02  0.123328E-02 -0.132942E-02
X  0.693147E-02 -0.271032E-02 -0.712142E-02
N -0.104347E-02 -0.318117E-02  0.117413E-02
C -0.377961E-02  0.171705E-02  0.236771E-02
N  0.149226E-02  0.473799E-02 -0.376613E-02
C  0.142358E-02 -0.522414E-02 -0.623944E-02
C -0.450020E-02 -0.383877E-02 -0.631036E-02
C  0.472641E-02  0.289627E-02 -0.368054E-02
H  0.869319E-02 -0.140345E-01 -0.130298E-01
C -0.551111E-02  0.273774E-02 -0.135018E-02
H -0.121685E-01 -0.197679E-01  0.211541E-01
H -0.171221E-01  0.249762E-01  0.162997E-01
H  0.723121E-03  0.668989E-02 -0.623659E-02
H -0.390648E-02 -0.131738E-02  0.834363E-03
H -0.220004E-02  0.534118E-02  0.285587E-02
C  0.726309E-03  0.327846E-02 -0.600098E-02
H  0.212662E-01 -0.639277E-02  0.185406E-02
H  0.968236E-02 -0.343850E-02 -0.244881E-01
C -0.475867E-02  0.434526E-02 -0.120006E-02
H -0.104410E-02  0.549331E-02 -0.269957E-02
H  0.502675E-02  0.397721E-03 -0.278574E-01
C  0.286737E-02  0.668259E-02 -0.199861E-02
H -0.582532E-03  0.124816E-01 -0.312466E-02
H -0.129853E-01  0.112163E-01 -0.839559E-02
H -0.160572E-01 -0.181573E-01  0.594657E-02
H -0.799106E-02  0.184525E-01 -0.188895E-01
H -0.211292E-01  0.812467E-02  0.890285E-02
X  0.948678E-03 -0.644096E-02  0.637231E-02
X -0.773864E-02 -0.368396E-02  0.314154E-02
X -0.279958E-02  0.482617E-02 -0.786923E-02
X  0.244783E-02 -0.409966E-03 -0.997292E-02
X  0.833837E-04 -0.122713E-02 -0.433746E-02
X  0.421107E-02  0.350751E-02 -0.421456E-02
X -0.589478E-02  0.254910E-02 -0.795138E-03
X  0.640350E-03  0.329717E-02 -0.611383E-02
X -0.526836E-02  0.418223E-02 -0.776261E-03
X  0.323715E-02  0.652817E-02 -0.163354E-02
N  0.230095E-02 -0.867059E-03 -0.323629E-02
C  0.995095E-02  0.475410E-02 -0.518008E-03
N  0.288076E-02 -0.153828E-02 -0.429246E-03
C -0.515622E-03  0.504124E-03 -0.950097E-02
C -0.106565E-02 -0.497561E-02 -0.438002E-02
C  0.210811E-02  0.725568E-02  0.647299E-03
H  0.125312E-02 -0.443152E-02 -0.594138E-02
C -0.481141E-02 -0.472282E-02  0.145282E-02
H -0.117969E-03  0.876986E-02  0.743029E-02
H  0.249136E-02 -0.151941E-01  0.498298E-02
H  0.962374E-03  0.106148E-01 -0.670986E-02
H -0.121590E-02  0.154174E-01 -0.608753E-03
H -0.383399E-02  0.810110E-02 -0.196705E-01
C -0.258536E-02  0.330468E-02  0.503000E-02
H  0.561208E-02 -0.285227E-01 -0.497588E-02
H  0.955753E-02  0.981519E-02  0.513368E-02
C -0.664253E-02 -0.343856E-02  0.616653E-02
H -0.224437E-01 -0.156421E-01 -0.453751E-02
H -0.284507E-02 -0.257344E-01 -0.126511E-01
C -0.732689E-02 -0.996432E-02  0.607818E-02
H -0.250326E-01  0.154469E-01 -0.208030E-01
H  0.155451E-01 -0.451566E-02  0.116810E-01
H  0.227581E-01 -0.194956E-01 -0.281345E-01
H -0.247572E-01  0.568643E-02 -0.672142E-02
H -0.244335E-01 -0.108640E-01 -0.874989E-02
X  0.110095E-02 -0.965235E-03 -0.314803E-02
X  0.935796E-02  0.463291E-02  0.553022E-04
X  0.405141E-02 -0.224449E-02 -0.610757E-03
X  0.751771E-03  0.558208E-03 -0.102186E-01
X -0.169844E-02 -0.404347E-02 -0.481027E-02
X  0.213069E-02  0.745895E-02  0.688039E-03
X -0.460461E-02 -0.416638E-02  0.131677E-02
X -0.160436E-02  0.409494E-02  0.566560E-02
X -0.594333E-02 -0.383323E-02  0.666777E-02
X -0.750429E-02 -0.103936E-01  0.544417E-02
N -0.587650E-02 -0.331861E-02 -0.629862E-03
C  0.194488E-02  0.283088E-02  0.259013E-02
N  0.229858E-02 -0.307121E-02 -0.189624E-02
C  0.107427E-01  0.200341E-02 -0.532170E-02
C -0.246293E-02 -0.779326E-02 -0.739635E-02
C -0.431231E-02 -0.181584E-03  0.127596E-02
H  0.791167E-02 -0.315701E-02  0.662568E-02
C -0.697186E-03 -0.329033E-02 -0.323100E-03
H  0.109916E-01  0.216522E-01  0.825362E-02
H  0.779371E-03 -0.865543E-02  0.505076E-05
H -0.888454E-02  0.231508E-02 -0.839442E-02
H  0.345667E-02 -0.268701E-01  0.121576E-02
H  0.215147E-02 -0.216868E-01  0.241099E-01
C  0.304229E-02  0.478077E-02  0.480127E-03
H  0.411347E-02 -0.796585E-02  0.875810E-02
H -0.268668E-02 -0.147494E-01 -0.397127E-02
C -0.618547E-02  0.208839E-02 -0.249083E-03
H  0.909406E-02  0.152810E-01  0.103247E-02
H -0.103875E-01  0.102539E-01 -0.297038E-02
C -0.427522E-03  0.626774E-03 -0.552775E-02
H -0.214626E-01  0.319016E-02  0.269977E-02
H  0.141765E-02  0.230519E-01  0.331530E-02
H  0.583974E-03  0.203492E-02 -0.933749E-02
H -0.720037E-03 -0.252789E-01  0.163782E-01
H  0.136289E-01 -0.117306E-01 -0.946442E-02
X -0.124304E-01 -0.114440E-02  0.390262E-02
X -0.204295E-02  0.998584E-02 -0.200186E-02
X  0.355581E-02  0.170940E-02 -0.783818E-02
X  0.160157E-01 -0.222398E-02 -0.627220E-02
X -0.235658E-02 -0.119457E-01 -0.176350E-02
X -0.440465E-02  0.751167E-03  0.307275E-03
X -0.385440E-02 -0.118600E-02 -0.102668E-02
X  0.286070E-02  0.495602E-02 -0.194446E-02
X -0.603194E-02  0.290802E-02 -0.158237E-02
X -0.150937E-02  0.124601E-02 -0.647825E-02
N -0.290725E-02 -0.776395E-02 -0.341840E-02
C -0.746418E-03 -0.507298E-02  0.239574E-02
N  0.865625E-03  0.754717E-03 -0.422208E-02
C -0.761875E-02  0.362334E-02  0.446785E-03
C -0.574934E-02  0.371931E-02 -0.508385E-03
C -0.127972E-01  0.795491E-02 -0.483681E-02
H  0.113793E-01  0.843423E-02 -0.642484E-02
C -0.481458E-02  0.201449E-02 -0.696623E-02
H  0.467017E-02  0.144108E-02 -0.108204E-01
H  0.309175E-02 -0.173887E-01 -0.148957E-01
H -0.299545E-01  0.130659E-01  0.121182E-02
H -0.537864E-02  0.508768E-03  0.734424E-02
H -0.468936E-02  0.303146E-01 -0.534538E-02
C -0.245715E-02  0.779237E-02  0.787507E-03
H  0.171038E-02 -0.148347E-01 -0.315218E-02
H -0.109514E-01  0.290449E-02  0.556128E-02
C  0.362798E-02 -0.198171E-03  0.437332E-02
H -0.111539E-01  0.498650E-02  0.603318E-02
H -0.457319E-02  0.115035E-01  0.102706E-01
C  0.724344E-02 -0.324691E-02  0.405247E-02
H  0.898202E-02 -0.949861E-02 -0.277746E-02
H  0.253862E-02 -0.200258E-02  0.422388E-02
H -0.305398E-04 -0.941443E-03  0.210656E-02
H  0.840778E-02 -0.485504E-02  0.445107E-02
H -0.667535E-02 -0.857332E-02  0.199452E-01
X -0.188060E-02 -0.773820E-02 -0.342847E-02
X -0.732570E-03 -0.398064E-02  0.239383E-02
X  0.240332E-02  0.202273E-02 -0.508153E-02
X -0.815980E-02  0.311222E-02  0.202177E-02
X -0.590192E-02  0.340753E-02 -0.614918E-03
X -0.129638E-01  0.851864E-02 -0.548224E-02
X -0.379475E-02  0.348164E-02 -0.703175E-02
X -0.292575E-02  0.894781E-02  0.158426E-02
X  0.306048E-02 -0.414948E-03  0.514102E-02
X  0.768482E-02 -0.318686E-02  0.402653E-02
N  0.316407E-02  0.462148E-02 -0.137350E-02
C -0.411270E-02 -0.504499E-02 -0.476626E-02
N  0.440974E-02 -0.484961E-02 -0.475621E-02
C  0.212711E-02 -0.578662E-02 -0.129116E-01
C -0.544289E-02 -0.796820E-03  0.370007E-02
C  0.249129E-02  0.957524E-03  0.542633E-02
H  0.337777E-02 -0.107513E-01  0.544650E-02
C -0.672045E-02  0.150671E-02 -0.665856E-02
H -0.165683E-01  0.700587E-02 -0.267243E-01
H -0.184096E-01 -0.108115E-01  0.650062E-02
H -0.872188E-02 -0.508404E-02 -0.356669E-02
H -0.269891E-01  0.130166E-01  0.216433E-01
H -0.136649E-01 -0.972098E-02  0.329688E-01
C  0.307219E-03 -0.414835E-03 -0.273841E-02
H -0.689429E-02 -0.108613E-01 -0.462751E-02
H  0.115839E-01  0.433260E-02  0.111338E-02
C -0.189722E-02 -0.192948E-02  0.855720E-03
H -0.113452E-01  0.882124E-02 -0.851747E-03
H -0.320516E-02  0.110445E-02 -0.573279E-02
C  0.859357E-02  0.509421E-02  0.278986E-02
H  0.162688E-01 -0.179091E-02  0.630629E-03
H  0.221561E-01 -0.104200E-01  0.147492E-03
H  0.114641E-01  0.179982E-01 -0.974991E-03
H -0.959407E-03  0.580386E-02 -0.274963E-02
H -0.150974E-01  0.104398E-01 -0.177339E-02
X -0.259194E-02  0.953059E-02  0.232017E-02
X -0.290816E-02  0.422249E-02 -0.541319E-02
X  0.114620E-01  0.740853E-03 -0.769195E-02
X  0.551724E-02 -0.123070E-01 -0.149424E-01
X -0.973510E-02 -0.643606E-02  0.660520E-02
X  0.410463E-02  0.192266E-02  0.491955E-02
X -0.827733E-02  0.527771E-02 -0.437852E-02
X -0.224281E-02 -0.512376E-03 -0.336675E-02
X -0.324485E-02 -0.255360E-02 -0.101185E-02
X  0.823797E-02  0.536646E-02  0.321092E-02
N -0.298716E-02  0.441578E-02  0.220131E-02
C -0.332315E-02 -0.426516E-02  0.458984E-02
N  0.434230E-02  0.207517E-02  0.258418E-02
C -0.443236E-02 -0.149560E-02  0.238491E-02
C -0.570490E-02  0.724626E-02  0.124680E-02
C -0.377494E-02  0.184681E-02  0.798701E-02
H  0.204888E-01  0.437873E-02  0.146261E-01
C -0.784191E-03 -0.211447E-02  0.267932E-02
H  0.394697E-02 -0.511573E-02  0.237119E-02
H  0.188955E-01  0.209975E-01  0.550541E-02
H -0.570252E-02  0.493585E-02  0.152126E-01
H  0.833798E-03  0.531751E-02  0.657763E-02
H -0.461285E-01 -0.280581E-02 -0.650157E-02
C -0.513287E-02 -0.393145E-02 -0.130377E-03
H -0.217413E-01 -0.119460E-01  0.130032E-02
H  0.635712E-02 -0.263754E-02 -0.191239E-01
C -0.140219E-02  0.220021E-02 -0.164336E-02
H -0.177685E-01  0.668066E-02 -0.171089E-01
H -0.214200E-01 -0.696375E-02  0.311415E-02
C -0.101747E-03  0.455060E-02  0.774166E-02
H -0.621285E-03  0.610744E-02 -0.467201E-02
H  0.991872E-02 -0.162881E-02 -0.770500E-02
H  0.880362E-02  0.242303E-01  0.128271E-01
H -0.159897E-02 -0.397221E-02 -0.189367E-01
H  0.593787E-03 -0.191813E-02  0.186975E-01
X -0.209887E-02  0.703327E-03  0.362842E-02
X -0.124196E-02 -0.577240E-02  0.133778E-02
X  0.421135E-02  0.542429E-02 -0.547825E-03
X -0.678744E-02  0.259383E-02  0.383894E-02
X -0.750289E-02  0.614716E-02  0.575584E-02
X -0.398364E-02  0.221205E-02  0.901847E-02
X -0.708994E-03 -0.107727E-02  0.340945E-02
X -0.412936E-02 -0.317553E-02 -0.308404E-03
X -0.550548E-03  0.206104E-02 -0.175402E-02
X  0.573694E-04  0.481008E-02  0.832936E-02
N  0.121089E-02 -0.738026E-02  0.261120E-02
C -0.139999E-02  0.999669E-03  0.469632E-02
N  0.936898E-03  0.211311E-02 -0.223668E-02
C  0.533908E-02 -0.747967E-02  0.376736E-02
C  0.322822E-02 -0.113081E-02 -0.530523E-02
C -0.756265E-02 -0.774955E-02 -0.674237E-03
H  0.856162E-04  0.162911E-02  0.678927E-03
C -0.395044E-03 -0.361415E-02  0.256473E-02
H  0.834033E-02 -0.900543E-02  0.113416E-01
H -0.226196E-02 -0.216856E-01 -0.233641E-02
H -0.427790E-01 -0.107521E-01  0.130130E-01
H -0.113638E-01 -0.193801E-01  0.919726E-02
H -0.614760E-02 -0.371470E-02  0.153648E-01
C  0.160576E-02 -0.271591E-03  0.268529E-02
H  0.237715E-02 -0.107954E-01  0.673976E-02
H  0.714156E-02 -0.186061E-02 -0.219144E-01
C  0.501070E-03  0.146143E-02  0.101366E-02
H -0.821878E-02  0.160869E-01  0.384374E-02
H  0.241666E-01  0.390226E-02  0.141557E-01
C -0.113364E-02  0.114992E-02 -0.730501E-02
H -0.495031E-03 -0.262545E-01  0.155733E-01
H -0.900102E-02 -0.568665E-02 -0.683574E-02
H  0.859569E-02  0.108202E-01 -0.297877E-01
H -0.608134E-02 -0.475023E-02 -0.567167E-02
H -0.259804E-01 -0.413664E-02 -0.152601E-01
X  0.914146E-02 -0.663423E-02  0.925444E-02
X -0.506987E-02 -0.695744E-03  0.139703E-01
X -0.794717E-02  0.266927E-03 -0.351775E-02
X  0.216853E-02 -0.650417E-02 -0.569137E-02
X  0.123602E-01  0.137385E-02 -0.111735E-01
X -0.796944E-02 -0.777310E-02 -0.129924E-02
X -0.441640E-03 -0.359210E-02  0.241982E-02
X  0.133392E-02 -0.553632E-03  0.245268E-02
X  0.442120E-03  0.136727E-02  0.103812E-02
X -0.132717E-02  0.796028E-03 -0.712247E-02
N  0.454522E-02  0.688939E-02  0.285277E-02
C  0.323567E-03 -0.157140E-02  0.650295E-02
N  0.800995E-04  0.344005E-02  0.407706E-02
C -0.159761E-02 -0.145696E-03  0.322257E-02
C -0.149580E-02  0.432457E-02 -0.216882E-03
C -0.225701E-02  0.779151E-02  0.276961E-02
H  0.870685E-02 -0.833167E-02  0.173026E-01
C -0.659119E-02  0.799882E-02 -0.248482E-02
H -0.770225E-02  0.344334E-02 -0.989545E-02
H  0.177519E-02  0.852334E-02  0.525331E-02
H -0.897015E-02  0.117329E-01  0.165741E-02
H -0.126193E-01  0.222244E-01  0.419508E-01
H -0.512676E-02 -0.120213E-02 -0.161467E-01
C  0.716714E-02  0.464682E-03  0.274263E-02
H -0.147941E-01  0.194178E-01 -0.102748E-01
H -0.319902E-02 -0.602483E-02 -0.150689E-01
C -0.492870E-02  0.164140E-04  0.101732E-01
H -0.437928E-02 -0.709175E-02 -0.271851E-01
H  0.135541E-01 -0.795105E-02  0.846048E-02
C -0.790990E-02  0.866777E-02 -0.953544E-03
H  0.452737E-03  0.111369E-01  0.273721E-03
H -0.125786E-01 -0.203021E-01 -0.139678E-01
H -0.885508E-02 -0.942063E-03  0.104334E-01
H  0.123388E-01 -0.131963E-01 -0.163771E-01
H  0.984845E-02 -0.153256E-01  0.263411E-01
X  0.481756E-02  0.711228E-02  0.279534E-02
X -0.514661E-03 -0.231541E-02  0.650853E-02
X  0.142811E-02  0.248072E-02  0.347014E-02
X -0.673135E-03 -0.421813E-03  0.285978E-02
X -0.124915E-02  0.379269E-02 -0.642888E-03
X -0.219021E-02  0.732662E-02  0.267281E-02
X -0.472255E-02  0.835419E-02 -0.346712E-02
X  0.868641E-02  0.169107E-02  0.222016E-02
X -0.516265E-02  0.417038E-03  0.102387E-01
X -0.738715E-02  0.925610E-02 -0.199384E-02
N -0.137059E-02  0.603184E-02  0.185595E-04
C  0.346186E-02  0.258789E-02 -0.143233E-02
N  0.666188E-03  0.242176E-02 -0.696963E-02
C  0.400587E-02 -0.292383E-02 -0.205520E-02
C  0.383798E-02  0.343071E-02 -0.160860E-02
C -0.628707E-03  0.871669E-03 -0.130969E-02
H  0.173285E-01  0.683010E-02 -0.903030E-02
C -0.195259E-02  0.196749E-02 -0.106590E-02
H -0.154709E-02 -0.349991E-01 -0.145202E-01
H  0.132157E-02  0.581665E-02 -0.132812E-01
H  0.129505E-01 -0.959724E-02  0.623397E-02
H -0.131303E-01 -0.120335E-01  0.136387E-02
H -0.395740E-01 -0.270208E-01 -0.173543E-01
C -0.141595E-02  0.113391E-02 -0.775183E-02
H -0.524980E-02  0.145167E-01  0.412934E-01
H  0.396390E-02  0.244324E-01  0.131850E-01
C -0.283678E-02 -0.359434E-02 -0.316330E-02
H  0.100507E-01 -0.194931E-01  0.245522E-01
H -0.148354E-01  0.240159E-02  0.102093E-01
C -0.336167E-02 -0.595515E-02  0.559806E-02
H  0.572924E-02  0.708820E-03 -0.526106E-02
H -0.123963E-02 -0.708461E-02  0.421660E-02
H -0.496965E-02  0.237510E-01  0.136597E-02
H  0.144449E-01  0.913283E-02  0.189403E-01
H -0.121808E-01  0.108819E-01 -0.162464E-01
X -0.916650E-03 -0.274641E-02 -0.146419E-02
X -0.426618E-02 -0.218104E-02 -0.675671E-02
X -0.755617E-02  0.224016E-02 -0.117123E-01
X  0.665337E-02  0.187475E-02  0.102173E-03
X  0.880832E-02  0.244084E-02  0.273269E-02
X -0.267008E-02  0.126474E-02 -0.333063E-02
X -0.470460E-02 -0.199112E-02 -0.710929E-02
X  0.240556E-02  0.237315E-02 -0.133024E-01
X  0.130347E-02 -0.322302E-02 -0.565873E-02
X -0.384425E-02 -0.585506E-02  0.237253E-02
N -0.830748E-03  0.482626E-02 -0.329932E-02
C  0.337543E-02  0.666619E-02 -0.476263E-02
N -0.116577E-02  0.259849E-02 -0.357788E-02
C  0.367438E-02  0.365001E-02  0.285841E-02
C  0.358172E-02 -0.280931E-02  0.430271E-02
C -0.409354E-02  0.356237E-03  0.117769E-02
H -0.687611E-02  0.873586E-02 -0.244158E-01
C -0.263831E-02 -0.773048E-02  0.440831E-02
H  0.558159E-02  0.396481E-02  0.320082E-02
H  0.102845E-01 -0.779489E-02  0.135716E-01
H -0.288795E-01 -0.995926E-02 -0.157398E-01
H  0.931251E-02 -0.450426E-02 -0.367986E-02
H -0.104144E-01 -0.840089E-02  0.147430E-01
C -0.610565E-02 -0.273419E-02  0.331552E-02
H  0.123176E-01  0.152970E-01 -0.309801E-01
H -0.245847E-02  0.212819E-01  0.184674E-01
C  0.768071E-03  0.116058E-02 -0.775203E-02
H  0.362645E-03  0.237459E-03 -0.703043E-02
H  0.419570E-01 -0.366413E-03  0.121257E-01
C -0.159515E-02 -0.198481E-03 -0.912146E-02
H  0.144007E-01  0.270815E-02 -0.451048E-02
H -0.946258E-03  0.319595E-02 -0.490917E-02
H  0.599533E-02 -0.130795E-01  0.248921E-02
H -0.165851E-02  0.112022E-01 -0.726585E-02
H  0.324964E-02  0.182814E-03 -0.760861E-02
X -0.134636E-02  0.480740E-02 -0.348788E-02
X  0.316858E-02  0.621993E-02 -0.490865E-02
X -0.113313E-02  0.186226E-02 -0.386909E-02
X  0.380663E-02  0.414637E-02  0.335141E-02
X  0.330162E-02 -0.263910E-02  0.454873E-02
X -0.391650E-02  0.829010E-03  0.973277E-03
X -0.387042E-02 -0.811952E-02  0.518579E-02
X -0.732301E-02 -0.350800E-02  0.380629E-02
X  0.747839E-03  0.478449E-03 -0.742768E-02
X -0.235474E-02 -0.274519E-03 -0.866206E-02
N -0.620540E-02  0.113405E-03  0.194190E-02
C -0.108726E-03  0.836291E-02 -0.370826E-02
N -0.513816E-02 -0.406487E-02  0.253133E-02
C -0.182919E-02 -0.427565E-02 -0.256247E-04
C -0.827754E-02 -0.258533E-02 -0.388994E-02
C  0.535817E-02  0.869773E-03 -0.287122E-02
H  0.169323E-02  0.989828E-02  0.602539E-02
C -0.252782E-02  0.592341E-02  0.158519E-02
H -0.176679E-01 -0.129923E-01 -0.106156E-01
H -0.245538E-01  0.107392E-02  0.307546E-01
H -0.108743E-01 -0.507141E-02 -0.160743E-01
H  0.184773E-05  0.114989E-01 -0.716046E-02
H  0.108801E-01  0.101486E-01  0.176699E-01
C -0.274264E-02 -0.334797E-02 -0.610515E-02
H -0.189655E-01  0.483157E-02 -0.795573E-02
H -0.864426E-03  0.203269E-01  0.112635E-01
C  0.871567E-02  0.350830E-02 -0.330813E-02
H  0.250547E-01  0.123475E-01 -0.183802E-01
H -0.183024E-02 -0.161788E-01  0.219714E-01
C  0.832633E-02 -0.492460E-02 -0.303892E-02
H  0.771632E-02  0.615281E-02  0.258764E-02
H  0.222170E-01  0.960848E-02 -0.162971E-01
H  0.249641E-01 -0.290981E-03 -0.754701E-02
H  0.493188E-03  0.807432E-02  0.369687E-02
H -0.977073E-02 -0.258318E-01 -0.326284E-02
X -0.534778E-02 -0.271602E-04  0.287269E-02
X  0.721963E-03  0.858896E-02 -0.263272E-02
X -0.706064E-02 -0.427439E-02  0.265688E-02
X -0.326799E-02 -0.446300E-02 -0.561977E-03
X -0.761994E-02 -0.295345E-02 -0.580922E-02
X  0.560807E-02  0.102945E-02 -0.297619E-02
X -0.226681E-02  0.643532E-02  0.889159E-03
X -0.255739E-02 -0.387430E-02 -0.706192E-02
X  0.859631E-02  0.318092E-02 -0.401198E-02
X  0.840921E-02 -0.469816E-02 -0.364999E-02
N -0.505446E-02  0.750705E-02  0.393848E-02
C  0.255014E-02 -0.109936E-02 -0.124339E-02
N  0.137958E-02 -0.479952E-02  0.420560E-02
C  0.518663E-02  0.481926E-02  0.147023E-02
C  0.104203E-02  0.175603E-02 -0.196843E-02
C  0.401718E-02  0.426733E-02 -0.779061E-02
H -0.683961E-02  0.274644E-01  0.624875E-03
C  0.125726E-02 -0.555550E-02  0.348660E-02
H -0.265935E-02 -0.505717E-02  0.245751E-02
H -0.159559E-03  0.184329E-01  0.592821E-02
H  0.297155E-02 -0.128616E-01 -0.127465E-01
H -0.136128E-01 -0.153276E-01  0.120467E-02
H -0.871820E-02  0.424475E-02  0.201443E-01
C  0.790910E-02 -0.530007E-02  0.319346E-04
H  0.705789E-02 -0.177475E-01 -0.173988E-01
H -0.126335E-02  0.560689E-03 -0.723149E-02
C -0.765892E-02 -0.124762E-01  0.163004E-02
H  0.162304E-01  0.121832E-01 -0.101086E-01
H -0.182779E-02  0.744235E-02  0.618716E-02
C  0.524793E-02  0.528550E-03 -0.177757E-02
H  0.135116E-01  0.465904E-02 -0.892619E-02
H -0.200455E-01 -0.187841E-02 -0.127538E-01
H  0.262870E-01  0.897134E-02 -0.602478E-02
H  0.518469E-02  0.130041E-01 -0.115988E-01
H -0.825629E-04  0.216974E-02 -0.212328E-01
X -0.814101E-02  0.579912E-02  0.830071E-02
X -0.992854E-03 -0.157959E-02 -0.422363E-02
X  0.244493E-02 -0.341437E-02 -0.563310E-03
X  0.104404E-01  0.673031E-02  0.753836E-03
X  0.302527E-02  0.702770E-03  0.283423E-02
X  0.493925E-02  0.483085E-02 -0.742157E-02
X  0.179800E-02 -0.549180E-02  0.500079E-02
X  0.845821E-02 -0.533288E-02  0.106723E-02
X -0.755780E-02 -0.135251E-01  0.224379E-02
X  0.572763E-02  0.155821E-03 -0.202638E-02
N -0.232229E-02  0.290768E-02  0.233095E-02
C  0.883597E-02  0.781032E-02 -0.860370E-02
N  0.462842E-03  0.200399E-02  0.284785E-02
C -0.273115E-02  0.111408E-02  0.900540E-02
C -0.218392E-02  0.255761E-02 -0.476425E-02
C -0.351230E-02 -0.606530E-02  0.866160E-02
H -0.189892E-01 -0.370206E-02 -0.152584E-01
C -0.524228E-02 -0.479075E-02  0.572743E-02
H -0.498666E-02  0.206262E-01 -0.157691E-01
H  0.118129E-01  0.232245E-01 -0.116127E-01
H -0.806193E-02  0.836830E-02  0.196533E-01
H  0.448009E-03 -0.132323E-01 -0.130978E-01
H  0.956564E-04  0.247824E-01 -0.571977E-02
C  0.684225E-02  0.479386E-03  0.111930E-02
H -0.222580E-01 -0.375544E-02  0.500530E-02
H  0.218310E-01  0.333793E-02  0.128828E-01
C -0.559335E-03 -0.419034E-02 -0.130602E-02
H -0.686610E-02 -0.823472E-02 -0.105576E-01
H  0.106299E-01 -0.211638E-01 -0.272664E-02
C  0.476527E-04  0.361069E-03  0.299791E-02
H -0.716087E-02 -0.324971E-02  0.820816E-02
H  0.119784E-01 -0.637163E-02 -0.630166E-02
H  0.277021E-01  0.419315E-02  0.104933E-01
H  0.496188E-02  0.226700E-02  0.261001E-02
H  0.278699E-02  0.140256E-01 -0.432895E-03
X -0.236326E-02  0.299720E-02  0.234108E-02
X  0.969353E-02  0.799856E-02 -0.902220E-02
X  0.323784E-03  0.216733E-02  0.289952E-02
X -0.282920E-02  0.868675E-03  0.918596E-02
X -0.265938E-02  0.196683E-02 -0.511886E-02
X -0.320833E-02 -0.655853E-02  0.832807E-02
X -0.502673E-02 -0.492265E-02  0.544199E-02
X  0.727976E-02  0.102630E-02  0.610527E-03
X -0.267972E-03 -0.423470E-02 -0.159005E-02
X  0.696152E-04  0.416812E-03  0.298179E-02
N  0.363751E-03  0.983764E-03  0.398290E-02
C -0.207050E-02 -0.231139E-02 -0.846451E-03
N  0.962346E-03  0.366619E-02  0.230171E-02
C -0.187892E-02 -0.454715E-02 -0.221151E-03
C -0.410032E-02 -0.181141E-02 -0.265856E-02
C -0.284862E-02 -0.288622E-02  0.220178E-03
H  0.517672E-02 -0.196785E-01 -0.163112E-01
C  0.151480E-02  0.259762E-03 -0.407787E-02
H  0.532248E-03  0.464736E-03  0.103025E-01
H -0.486040E-02  0.144216E-01 -0.185823E-02
H -0.264806E-02 -0.198771E-01 -0.628386E-02
H  0.234785E-01 -0.229123E-01 -0.979092E-02
H  0.211257E-01 -0.168034E-02  0.156595E-02
C -0.626119E-02  0.373785E-02 -0.835076E-02
H  0.199161E-01  0.137670E-02  0.179677E-03
H -0.984976E-02 -0.158701E-02  0.148962E-01
C -0.843705E-02  0.227383E-02 -0.509110E-02
H -0.140032E-01 -0.372047E-02 -0.149038E-01
H  0.934067E-02 -0.229722E-02 -0.401196E-02
C  0.534283E-03  0.187064E-02 -0.646865E-02
H -0.127518E-01  0.102152E-02 -0.410036E-03
H -0.167486E-01  0.332067E-02  0.168888E-02
H  0.644653E-02  0.385483E-03 -0.195984E-01
H  0.186637E-02 -0.626057E-02  0.185026E-01
H  0.466480E-03 -0.408760E-02 -0.425362E-02
X -0.167409E-02 -0.344000E-03  0.842924E-02
X -0.591907E-02  0.172429E-02  0.829276E-03
X  0.135083E-03  0.790762E-02 -0.416584E-03
X  0.175677E-02 -0.497648E-02 -0.336014E-02
X -0.241360E-02 -0.600415E-02 -0.196187E-02
X -0.316584E-02 -0.204681E-02  0.486526E-03
X  0.811248E-03  0.341307E-03 -0.451702E-02
X -0.700387E-02  0.414491E-02 -0.878650E-02
X -0.904972E-02  0.238999E-02 -0.491435E-02
X  0.311112E-03  0.188867E-02 -0.637093E-02
N -0.274588E-03 -0.225723E-03 -0.475593E-02
C  0.498764E-03  0.134041E-02 -0.516149E-02
N -0.528447E-02 -0.528519E-02 -0.767506E-03
C -0.116984E-02 -0.693197E-02 -0.229945E-02
C -0.759118E-02 -0.937021E-02 -0.848731E-05
C -0.447714E-02  0.442639E-02  0.431502E-02
H -0.140447E-02  0.113098E-02  0.403924E-04
C -0.577828E-04 -0.771199E-02 -0.590768E-02
H  0.354717E-02  0.120051E-01 -0.746244E-02
H -0.412493E-02 -0.108505E-01  0.953042E-03
H -0.199535E-01 -0.920919E-02  0.797021E-02
H -0.130188E-02 -0.143017E-01  0.240438E-01
H -0.185501E-01 -0.523219E-02 -0.136344E-01