ITEM: TIMESTEP
0
ITEM: NUMBER OF ATOMS
30208
ITEM: BOX BOUNDS pp pp pp
0.00000 64.05027
0.00000 64.05027
0.00000 64.05027
ITEM: ATOMS element xu yu zu
N  0.603009E+02  0.482740E+02  0.440072E+02
C  0.590092E+02  0.480520E+02  0.442563E+02
N  0.583727E+02  0.491943E+02  0.441786E+02
C  0.592869E+02  0.501845E+02  0.438612E+02
C  0.604890E+02  0.496393E+02  0.438646E+02
C  0.612823E+02  0.472431E+02  0.441901E+02
H  0.585646E+02  0.471215E+02  0.445771E+02
C  0.569589E+02  0.494455E+02  0.445450E+02
H  0.590727E+02  0.512404E+02  0.437864E+02
H  0.614142E+02  0.501781E+02  0.437227E+02
H  0.616880E+02  0.471160E+02  0.451938E+02
H  0.608447E+02  0.463116E+02  0.438311E+02
H  0.620701E+02  0.474509E+02  0.434660E+02
C  0.560505E+02  0.481862E+02  0.445395E+02
H  0.568197E+02  0.499210E+02  0.455159E+02
H  0.565018E+02  0.502012E+02  0.439062E+02
C  0.545573E+02  0.485938E+02  0.448439E+02
H  0.559664E+02  0.476398E+02  0.436001E+02
H  0.564230E+02  0.473911E+02  0.451855E+02
C  0.542208E+02  0.489604E+02  0.462784E+02
H  0.538990E+02  0.477648E+02  0.445841E+02
H  0.542295E+02  0.494326E+02  0.442298E+02
H  0.531501E+02  0.488418E+02  0.464448E+02
H  0.545084E+02  0.499799E+02  0.465354E+02
H  0.546680E+02  0.482597E+02  0.469834E+02
X  0.603002E+02  0.483125E+02  0.439953E+02
X  0.590258E+02  0.480507E+02  0.442514E+02
X  0.583664E+02  0.491744E+02  0.441804E+02
X  0.592522E+02  0.501817E+02  0.438623E+02
X  0.604721E+02  0.496646E+02  0.438539E+02
X  0.612464E+02  0.472696E+02  0.441787E+02
X  0.569514E+02  0.494573E+02  0.445413E+02
X  0.560530E+02  0.481928E+02  0.445514E+02
X  0.545546E+02  0.486076E+02  0.448303E+02
X  0.542304E+02  0.489641E+02  0.462616E+02
N -0.667387E+01 -0.495090E+01  0.846958E+02
C -0.536111E+01 -0.493163E+01  0.846361E+02
N -0.486194E+01 -0.585464E+01  0.854428E+02
C -0.597392E+01 -0.667529E+01  0.857547E+02
C -0.707137E+01 -0.614944E+01  0.852204E+02
C -0.756237E+01 -0.395973E+01  0.841442E+02
H -0.476569E+01 -0.420888E+01  0.840981E+02
C -0.340655E+01 -0.607000E+01  0.857483E+02
H -0.585953E+01 -0.766804E+01  0.861643E+02
H -0.811455E+01 -0.642760E+01  0.852488E+02
H -0.705624E+01 -0.303992E+01  0.838512E+02
H -0.798540E+01 -0.436503E+01  0.832251E+02
H -0.841457E+01 -0.374301E+01  0.847884E+02
C -0.290473E+01 -0.744311E+01  0.860815E+02
H -0.283261E+01 -0.570341E+01  0.848972E+02
H -0.310490E+01 -0.526626E+01  0.864199E+02
C -0.293476E+01 -0.844725E+01  0.849025E+02
H -0.188342E+01 -0.727224E+01  0.864218E+02
H -0.328847E+01 -0.778650E+01  0.870422E+02
C -0.206905E+01 -0.977007E+01  0.851081E+02
H -0.250799E+01 -0.798879E+01  0.840104E+02
H -0.398452E+01 -0.869778E+01  0.847497E+02
H -0.201072E+01 -0.101857E+02  0.861140E+02
H -0.108093E+01 -0.937196E+01  0.848774E+02
H -0.227892E+01 -0.105784E+02  0.844076E+02
X -0.667504E+01 -0.495267E+01  0.846992E+02
X -0.537958E+01 -0.494485E+01  0.846564E+02
X -0.486129E+01 -0.585803E+01  0.854471E+02
X -0.597060E+01 -0.666602E+01  0.857590E+02
X -0.707339E+01 -0.613947E+01  0.852114E+02
X -0.755277E+01 -0.396807E+01  0.841598E+02
X -0.341687E+01 -0.609992E+01  0.857558E+02
X -0.290604E+01 -0.746030E+01  0.860927E+02
X -0.294469E+01 -0.844156E+01  0.849075E+02
X -0.207870E+01 -0.977135E+01  0.851036E+02
N -0.192440E+01 -0.254370E+02  0.832575E+02
C -0.165990E+01 -0.245514E+02  0.842229E+02
N -0.282416E+01 -0.240359E+02  0.845859E+02
C -0.383170E+01 -0.247301E+02  0.839701E+02
C -0.327105E+01 -0.254432E+02  0.830052E+02
C -0.101239E+01 -0.260003E+02  0.822874E+02
H -0.692000E+00 -0.243272E+02  0.846463E+02
C -0.309064E+01 -0.229196E+02  0.855145E+02
H -0.488457E+01 -0.245611E+02  0.841413E+02
H -0.370812E+01 -0.260888E+02  0.822578E+02
H -0.783919E-01 -0.261245E+02  0.828354E+02
H -0.133155E+01 -0.269369E+02  0.818301E+02
H -0.834161E+00 -0.253311E+02  0.814457E+02
C -0.431133E+01 -0.229450E+02  0.864396E+02
H -0.222066E+01 -0.229764E+02  0.861687E+02
H -0.306570E+01 -0.219780E+02  0.849661E+02
C -0.458338E+01 -0.243258E+02  0.872131E+02
H -0.420644E+01 -0.220813E+02  0.870962E+02
H -0.513197E+01 -0.227907E+02  0.857390E+02
C -0.351157E+01 -0.246108E+02  0.882141E+02
H -0.480848E+01 -0.251730E+02  0.865653E+02
H -0.550383E+01 -0.242342E+02  0.877897E+02
H -0.339105E+01 -0.237555E+02  0.888788E+02
H -0.254527E+01 -0.248182E+02  0.877543E+02
H -0.369996E+01 -0.255205E+02  0.887843E+02
X -0.194684E+01 -0.254173E+02  0.832816E+02
X -0.168838E+01 -0.245336E+02  0.842344E+02
X -0.284318E+01 -0.240302E+02  0.845835E+02
X -0.385268E+01 -0.247194E+02  0.839781E+02
X -0.327684E+01 -0.254327E+02  0.830051E+02
X -0.105820E+01 -0.259748E+02  0.823124E+02
X -0.310151E+01 -0.229263E+02  0.855185E+02
X -0.431637E+01 -0.229584E+02  0.864397E+02
X -0.459163E+01 -0.243358E+02  0.872020E+02
X -0.351744E+01 -0.245959E+02  0.881977E+02
N  0.633564E+02  0.364735E+02  0.495557E+02
C  0.623596E+02  0.372874E+02  0.498613E+02
N  0.624200E+02  0.383400E+02  0.490573E+02
C  0.632975E+02  0.380528E+02  0.480292E+02
C  0.638684E+02  0.369476E+02  0.483635E+02
C  0.635085E+02  0.350953E+02  0.499739E+02
H  0.616860E+02  0.371714E+02  0.506974E+02
C  0.614073E+02  0.394387E+02  0.491679E+02
H  0.634604E+02  0.386331E+02  0.471329E+02
H  0.646409E+02  0.364807E+02  0.477705E+02
H  0.638217E+02  0.350973E+02  0.510179E+02
H  0.625758E+02  0.345483E+02  0.498359E+02
H  0.643843E+02  0.346165E+02  0.495360E+02
C  0.603538E+02  0.393113E+02  0.481181E+02
H  0.609967E+02  0.393422E+02  0.501730E+02
H  0.617727E+02  0.404656E+02  0.491698E+02
C  0.590777E+02  0.384791E+02  0.483422E+02
H  0.599757E+02  0.403325E+02  0.480715E+02
H  0.607480E+02  0.389680E+02  0.471617E+02
C  0.593877E+02  0.369752E+02  0.479936E+02
H  0.582696E+02  0.387958E+02  0.476829E+02
H  0.587228E+02  0.386926E+02  0.493505E+02
H  0.585198E+02  0.363262E+02  0.478770E+02
H  0.600258E+02  0.364498E+02  0.487042E+02
H  0.598779E+02  0.368885E+02  0.470239E+02
X  0.633518E+02  0.365008E+02  0.495516E+02
X  0.623519E+02  0.372948E+02  0.498512E+02
X  0.624154E+02  0.383494E+02  0.490591E+02
X  0.632859E+02  0.380589E+02  0.480462E+02
X  0.638623E+02  0.369432E+02  0.483571E+02
X  0.634863E+02  0.351309E+02  0.499513E+02
X  0.614006E+02  0.394418E+02  0.491757E+02
X  0.603646E+02  0.393059E+02  0.481155E+02
X  0.590782E+02  0.385040E+02  0.483538E+02
X  0.593898E+02  0.370058E+02  0.480087E+02
N -0.459717E+01  0.237000E+02 -0.178524E+02
C -0.382716E+01  0.229431E+02 -0.170432E+02
N -0.308763E+01  0.220847E+02 -0.177351E+02
C -0.346998E+01  0.222735E+02 -0.190173E+02
C -0.425657E+01  0.233328E+02 -0.190840E+02
C -0.550220E+01  0.247607E+02 -0.174949E+02
H -0.363889E+01  0.231482E+02 -0.159997E+02
C -0.210098E+01  0.211259E+02 -0.172392E+02
H -0.308844E+01  0.216750E+02 -0.198313E+02
H -0.472467E+01  0.238735E+02 -0.198933E+02
H -0.634135E+01  0.248204E+02 -0.181880E+02
H -0.586660E+01  0.244154E+02 -0.165274E+02
H -0.498445E+01  0.257070E+02 -0.173381E+02
C -0.283498E+01  0.198967E+02 -0.166793E+02
H -0.142728E+01  0.208220E+02 -0.180404E+02
H -0.156348E+01  0.216336E+02 -0.164383E+02
C -0.356655E+01  0.190861E+02 -0.177479E+02
H -0.211323E+01  0.191771E+02 -0.162926E+02
H -0.350135E+01  0.202102E+02 -0.158757E+02
C -0.426150E+01  0.178408E+02 -0.171620E+02
H -0.282963E+01  0.187466E+02 -0.184758E+02
H -0.421002E+01  0.197257E+02 -0.183521E+02
H -0.492935E+01  0.172563E+02 -0.177949E+02
H -0.509146E+01  0.182528E+02 -0.165880E+02
H -0.362730E+01  0.172845E+02 -0.164718E+02
X -0.459580E+01  0.236952E+02 -0.178954E+02
X -0.385371E+01  0.229595E+02 -0.170647E+02
X -0.309225E+01  0.220839E+02 -0.176998E+02
X -0.344378E+01  0.222452E+02 -0.189834E+02
X -0.423040E+01  0.233061E+02 -0.191017E+02
X -0.548789E+01  0.247445E+02 -0.175079E+02
X -0.211491E+01  0.211022E+02 -0.172436E+02
X -0.284562E+01  0.198823E+02 -0.166723E+02
X -0.356439E+01  0.190873E+02 -0.177512E+02
X -0.425646E+01  0.178356E+02 -0.171481E+02
N  0.406815E+02  0.899991E+02  0.620259E+02
C  0.405388E+02  0.888550E+02  0.627488E+02
N  0.394549E+02  0.882146E+02  0.623136E+02
C  0.390142E+02  0.889096E+02  0.611698E+02
C  0.398274E+02  0.899548E+02  0.609060E+02
C  0.417046E+02  0.909429E+02  0.621401E+02
H  0.411767E+02  0.885587E+02  0.635685E+02
C  0.388642E+02  0.869665E+02  0.628203E+02
H  0.382537E+02  0.884558E+02  0.605516E+02
H  0.398809E+02  0.906350E+02  0.600688E+02
H  0.423290E+02  0.910011E+02  0.612486E+02
H  0.412859E+02  0.919409E+02  0.622705E+02
H  0.424044E+02  0.907503E+02  0.629533E+02
C  0.375309E+02  0.870369E+02  0.635606E+02
H  0.387060E+02  0.862273E+02  0.620350E+02
H  0.396450E+02  0.865365E+02  0.634476E+02
C  0.377565E+02  0.876334E+02  0.649739E+02
H  0.369384E+02  0.876166E+02  0.628528E+02
H  0.371813E+02  0.860066E+02  0.636274E+02
C  0.380872E+02  0.866185E+02  0.660422E+02
H  0.368651E+02  0.881687E+02  0.653012E+02
H  0.384707E+02  0.884561E+02  0.649421E+02
H  0.387943E+02  0.859316E+02  0.655772E+02
H  0.371573E+02  0.861015E+02  0.662791E+02
H  0.385196E+02  0.870727E+02  0.669338E+02
X  0.406683E+02  0.899939E+02  0.620226E+02
X  0.405226E+02  0.888570E+02  0.627357E+02
X  0.394471E+02  0.882072E+02  0.623215E+02
X  0.390131E+02  0.889128E+02  0.611914E+02
X  0.398289E+02  0.899602E+02  0.609027E+02
X  0.416849E+02  0.909260E+02  0.621248E+02
X  0.388513E+02  0.869758E+02  0.628409E+02
X  0.375179E+02  0.870456E+02  0.635753E+02
X  0.377648E+02  0.876401E+02  0.649784E+02
X  0.380920E+02  0.866180E+02  0.660319E+02
N  0.573108E+02  0.108101E+02  0.635451E+01
C  0.563293E+02  0.103469E+02  0.705671E+01
N  0.565471E+02  0.923824E+01  0.768708E+01
C  0.578322E+02  0.889326E+01  0.739972E+01
C  0.583522E+02  0.994080E+01  0.671493E+01
C  0.572328E+02  0.120820E+02  0.556943E+01
H  0.554949E+02  0.109740E+02  0.733403E+01
C  0.556721E+02  0.865468E+01  0.870344E+01
H  0.582983E+02  0.801345E+01  0.781824E+01
H  0.593928E+02  0.100618E+02  0.645260E+01
H  0.582295E+02  0.125208E+02  0.561493E+01
H  0.570701E+02  0.118534E+02  0.451617E+01
H  0.564065E+02  0.127401E+02  0.583805E+01
C  0.550093E+02  0.737891E+01  0.832969E+01
H  0.562286E+02  0.864630E+01  0.964062E+01
H  0.548908E+02  0.934820E+01  0.901439E+01
C  0.537732E+02  0.736514E+01  0.752068E+01
H  0.557801E+02  0.685888E+01  0.776087E+01
H  0.548151E+02  0.682241E+01  0.924659E+01
C  0.525243E+02  0.796714E+01  0.826203E+01
H  0.534684E+02  0.642221E+01  0.706672E+01
H  0.540292E+02  0.787084E+01  0.658963E+01
H  0.518555E+02  0.843935E+01  0.754243E+01
H  0.528337E+02  0.881337E+01  0.887545E+01
H  0.519570E+02  0.734514E+01  0.895437E+01
X  0.573403E+02  0.107982E+02  0.634880E+01
X  0.563614E+02  0.103504E+02  0.703641E+01
X  0.565285E+02  0.925144E+01  0.768205E+01
X  0.578029E+02  0.888532E+01  0.741136E+01
X  0.583591E+02  0.991143E+01  0.672477E+01
X  0.572222E+02  0.120737E+02  0.557654E+01
X  0.556711E+02  0.864527E+01  0.868648E+01
X  0.550011E+02  0.737248E+01  0.833656E+01
X  0.537788E+02  0.736346E+01  0.752449E+01
X  0.525373E+02  0.796537E+01  0.826011E+01
N  0.502985E+02 -0.700557E+01  0.990416E+02
C  0.513912E+02 -0.775587E+01  0.988428E+02
N  0.515036E+02 -0.867859E+01  0.997549E+02
C  0.504810E+02 -0.840496E+01  0.100616E+03
C  0.496978E+02 -0.745043E+01  0.100176E+03
C  0.498357E+02 -0.583301E+01  0.983238E+02
H  0.521011E+02 -0.758472E+01  0.980471E+02
C  0.524337E+02 -0.975169E+01  0.998964E+02
H  0.502745E+02 -0.900546E+01  0.101489E+03
H  0.488145E+02 -0.701000E+01  0.100614E+03
H  0.507671E+02 -0.536453E+01  0.980058E+02
H  0.491277E+02 -0.603756E+01  0.975206E+02
H  0.495253E+02 -0.511810E+01  0.990858E+02
C  0.533884E+02 -0.978638E+01  0.101142E+03
H  0.519127E+02 -0.106867E+02  0.996905E+02
H  0.530982E+02 -0.959617E+01  0.990464E+02
C  0.527920E+02 -0.106966E+02  0.102264E+03
H  0.543096E+02 -0.103035E+02  0.100873E+03
H  0.537260E+02 -0.878649E+01  0.101414E+03
C  0.537593E+02 -0.109410E+02  0.103450E+03
H  0.526338E+02 -0.116744E+02  0.101810E+03
H  0.517828E+02 -0.103745E+02  0.102521E+03
H  0.538926E+02 -0.993810E+01  0.103855E+03
H  0.547445E+02 -0.112483E+02  0.103099E+03
H  0.534106E+02 -0.115928E+02  0.104251E+03
X  0.503336E+02 -0.702848E+01  0.990263E+02
X  0.514106E+02 -0.779374E+01  0.988729E+02
X  0.515021E+02 -0.870385E+01  0.997830E+02
X  0.504711E+02 -0.839445E+01  0.100617E+03
X  0.497020E+02 -0.743787E+01  0.100145E+03
X  0.498407E+02 -0.585069E+01  0.983508E+02
X  0.524529E+02 -0.975455E+01  0.999288E+02
X  0.534086E+02 -0.979049E+01  0.101163E+03
X  0.527784E+02 -0.106951E+02  0.102257E+03
X  0.537526E+02 -0.109333E+02  0.103445E+03
N  0.688629E+02  0.786019E+02  0.512197E+02
C  0.677258E+02  0.780102E+02  0.512439E+02
N  0.678399E+02  0.768160E+02  0.518271E+02
C  0.690728E+02  0.767582E+02  0.524822E+02
C  0.697033E+02  0.778746E+02  0.520371E+02
C  0.692053E+02  0.797172E+02  0.503309E+02
H  0.669081E+02  0.783359E+02  0.506180E+02
C  0.667718E+02  0.758294E+02  0.519836E+02
H  0.694844E+02  0.759620E+02  0.530848E+02
H  0.707239E+02  0.781715E+02  0.522282E+02
H  0.696453E+02  0.805603E+02  0.508634E+02
H  0.700669E+02  0.795284E+02  0.496906E+02
H  0.684167E+02  0.799870E+02  0.496284E+02
C  0.670621E+02  0.743913E+02  0.515887E+02
H  0.663344E+02  0.758864E+02  0.529804E+02
H  0.658534E+02  0.761763E+02  0.515101E+02
C  0.677524E+02  0.742654E+02  0.501938E+02
H  0.676769E+02  0.740128E+02  0.524053E+02
H  0.660738E+02  0.739335E+02  0.515474E+02
C  0.680518E+02  0.727611E+02  0.499434E+02
H  0.687081E+02  0.747883E+02  0.502292E+02
H  0.672124E+02  0.746626E+02  0.493343E+02
H  0.682554E+02  0.725228E+02  0.488994E+02
H  0.671647E+02  0.721834E+02  0.502032E+02
H  0.688792E+02  0.723749E+02  0.505386E+02
X  0.688405E+02  0.785929E+02  0.512190E+02
X  0.677237E+02  0.779765E+02  0.512649E+02
X  0.678552E+02  0.768019E+02  0.518389E+02
X  0.690664E+02  0.767558E+02  0.525068E+02
X  0.696801E+02  0.778753E+02  0.520211E+02
X  0.691967E+02  0.797007E+02  0.503251E+02
X  0.667826E+02  0.758422E+02  0.519847E+02
X  0.670634E+02  0.743902E+02  0.516021E+02
X  0.677409E+02  0.742804E+02  0.502124E+02
X  0.680470E+02  0.727724E+02  0.499599E+02
N  0.277682E+02  0.559669E+02  0.837327E+02
C  0.272183E+02  0.570966E+02  0.841115E+02
N  0.279655E+02  0.580896E+02  0.837335E+02
C  0.290280E+02  0.575280E+02  0.830582E+02
C  0.289039E+02  0.561902E+02  0.830887E+02
C  0.271462E+02  0.546522E+02  0.839216E+02
H  0.263801E+02  0.572003E+02  0.847846E+02
C  0.278013E+02  0.594872E+02  0.842564E+02
H  0.297819E+02  0.581785E+02  0.826400E+02
H  0.294378E+02  0.553703E+02  0.826314E+02
H  0.264817E+02  0.546011E+02  0.847841E+02
H  0.265459E+02  0.543267E+02  0.830720E+02
H  0.278522E+02  0.538271E+02  0.840159E+02
C  0.264820E+02  0.599824E+02  0.846322E+02
H  0.285792E+02  0.595997E+02  0.850116E+02
H  0.280670E+02  0.601106E+02  0.834027E+02
C  0.254683E+02  0.598955E+02  0.834999E+02
H  0.261864E+02  0.594271E+02  0.855224E+02
H  0.266851E+02  0.610145E+02  0.849183E+02
C  0.240358E+02  0.603110E+02  0.839244E+02
H  0.254702E+02  0.589066E+02  0.830416E+02
H  0.257024E+02  0.606254E+02  0.827249E+02
H  0.233837E+02  0.602038E+02  0.830576E+02
H  0.239933E+02  0.613797E+02  0.841342E+02
H  0.237389E+02  0.597475E+02  0.848090E+02
X  0.278034E+02  0.559745E+02  0.837131E+02
X  0.272131E+02  0.570642E+02  0.841083E+02
X  0.279429E+02  0.580681E+02  0.837419E+02
X  0.290015E+02  0.575411E+02  0.830657E+02
X  0.289220E+02  0.561974E+02  0.830730E+02
X  0.271571E+02  0.546814E+02  0.839199E+02
X  0.277765E+02  0.594608E+02  0.842473E+02
X  0.264746E+02  0.599851E+02  0.846447E+02
X  0.254957E+02  0.598865E+02  0.834991E+02
X  0.240646E+02  0.603047E+02  0.839233E+02
N  0.865004E+02  0.356241E+02  0.336586E+02
C  0.872360E+02  0.346677E+02  0.331779E+02
N  0.877704E+02  0.348998E+02  0.320036E+02
C  0.872739E+02  0.361207E+02  0.316278E+02
C  0.866156E+02  0.366028E+02  0.327009E+02
C  0.857765E+02  0.356581E+02  0.349255E+02
H  0.873642E+02  0.337236E+02  0.336866E+02
C  0.886789E+02  0.340088E+02  0.312562E+02
H  0.874303E+02  0.364866E+02  0.306237E+02
H  0.860762E+02  0.375310E+02  0.328186E+02
H  0.847644E+02  0.352668E+02  0.348230E+02
H  0.863839E+02  0.351587E+02  0.356803E+02
H  0.855479E+02  0.366673E+02  0.352682E+02
C  0.883176E+02  0.325552E+02  0.313006E+02
H  0.886315E+02  0.342576E+02  0.301961E+02
H  0.897148E+02  0.340142E+02  0.315954E+02
C  0.868345E+02  0.321043E+02  0.309956E+02
H  0.888937E+02  0.320269E+02  0.305409E+02
H  0.885865E+02  0.321555E+02  0.322784E+02
C  0.865021E+02  0.323586E+02  0.295457E+02
H  0.860772E+02  0.326737E+02  0.315345E+02
H  0.866943E+02  0.310919E+02  0.313742E+02
H  0.873005E+02  0.321838E+02  0.288246E+02
H  0.861004E+02  0.333298E+02  0.292568E+02
H  0.856216E+02  0.317826E+02  0.292610E+02
X  0.865069E+02  0.356361E+02  0.336336E+02
X  0.872289E+02  0.346705E+02  0.331929E+02
X  0.877524E+02  0.349081E+02  0.320277E+02
X  0.872699E+02  0.361120E+02  0.316264E+02
X  0.866188E+02  0.366171E+02  0.326986E+02
X  0.858001E+02  0.356672E+02  0.348918E+02
X  0.886441E+02  0.340311E+02  0.312649E+02
X  0.883218E+02  0.325744E+02  0.313064E+02
X  0.868481E+02  0.321168E+02  0.310014E+02
X  0.865148E+02  0.323742E+02  0.295572E+02
N  0.373354E+01  0.192278E+02  0.972660E+01
C  0.341880E+01  0.192838E+02  0.847453E+01
N  0.446487E+01  0.196431E+02  0.773888E+01
C  0.553135E+01  0.197543E+02  0.854699E+01
C  0.505485E+01  0.194728E+02  0.975157E+01
C  0.291990E+01  0.188213E+02  0.108359E+02
H  0.240448E+01  0.193379E+02  0.810763E+01
C  0.438419E+01  0.200892E+02  0.634246E+01
H  0.651324E+01  0.200632E+02  0.822004E+01
H  0.555873E+01  0.194762E+02  0.107068E+02
H  0.325127E+01  0.192485E+02  0.117824E+02
H  0.186236E+01  0.190333E+02  0.106786E+02
H  0.299622E+01  0.177654E+02  0.110952E+02
C  0.571017E+01  0.198532E+02  0.561982E+01
H  0.352521E+01  0.195361E+02  0.596254E+01
H  0.415365E+01  0.211545E+02  0.634802E+01
C  0.569261E+01  0.203277E+02  0.417243E+01
H  0.657175E+01  0.203381E+02  0.607879E+01
H  0.585692E+01  0.187780E+02  0.572207E+01
C  0.603787E+01  0.218059E+02  0.399836E+01
H  0.480187E+01  0.200611E+02  0.360357E+01
H  0.650445E+01  0.198122E+02  0.365929E+01
H  0.694847E+01  0.221021E+02  0.451914E+01
H  0.524199E+01  0.225262E+02  0.418808E+01
H  0.636166E+01  0.218503E+02  0.295851E+01
X  0.373536E+01  0.192348E+02  0.967640E+01
X  0.342105E+01  0.192968E+02  0.843610E+01
X  0.447587E+01  0.196475E+02  0.771652E+01
X  0.550234E+01  0.197343E+02  0.854002E+01
X  0.503529E+01  0.194682E+02  0.976092E+01
X  0.294280E+01  0.188542E+02  0.107869E+02
X  0.438485E+01  0.200943E+02  0.632498E+01
X  0.572699E+01  0.198608E+02  0.562419E+01
X  0.568069E+01  0.203201E+02  0.417268E+01
X  0.603093E+01  0.217887E+02  0.400190E+01
N  0.534903E+02  0.461132E+02  0.406788E+02
C  0.523816E+02  0.466523E+02  0.412101E+02
N  0.525747E+02  0.479379E+02  0.414719E+02
C  0.538584E+02  0.482677E+02  0.410582E+02
C  0.543850E+02  0.471558E+02  0.404635E+02
C  0.537041E+02  0.446710E+02  0.402833E+02
H  0.515164E+02  0.460910E+02  0.415305E+02
C  0.515760E+02  0.488422E+02  0.420946E+02
H  0.542645E+02  0.492649E+02  0.411419E+02
H  0.553540E+02  0.469771E+02  0.400213E+02
H  0.538356E+02  0.445898E+02  0.392044E+02
H  0.546380E+02  0.442705E+02  0.406776E+02
H  0.529450E+02  0.440157E+02  0.407106E+02
C  0.504901E+02  0.480731E+02  0.428278E+02
H  0.520048E+02  0.495988E+02  0.427518E+02
H  0.510331E+02  0.493975E+02  0.413298E+02
C  0.508791E+02  0.473718E+02  0.441272E+02
H  0.496018E+02  0.486754E+02  0.430182E+02
H  0.500542E+02  0.473067E+02  0.421869E+02
C  0.500579E+02  0.461716E+02  0.446119E+02
H  0.508753E+02  0.480975E+02  0.449406E+02
H  0.519231E+02  0.470673E+02  0.440531E+02
H  0.490688E+02  0.465586E+02  0.448565E+02
H  0.504029E+02  0.458087E+02  0.455801E+02
H  0.499587E+02  0.453251E+02  0.439324E+02
X  0.534729E+02  0.461195E+02  0.406815E+02
X  0.523809E+02  0.466853E+02  0.412080E+02
X  0.525768E+02  0.479577E+02  0.414752E+02
X  0.538523E+02  0.482609E+02  0.410641E+02
X  0.543721E+02  0.471395E+02  0.404537E+02
X  0.537230E+02  0.446884E+02  0.402599E+02
X  0.515786E+02  0.488386E+02  0.421182E+02
X  0.504939E+02  0.480444E+02  0.428404E+02
X  0.508808E+02  0.473720E+02  0.441327E+02
X  0.500526E+02  0.461728E+02  0.446068E+02
N  0.507735E+01  0.464406E+02  0.390039E+02
C  0.481663E+01  0.452305E+02  0.386415E+02
N  0.369297E+01  0.452697E+02  0.379494E+02
C  0.334805E+01  0.466267E+02  0.377328E+02
C  0.422749E+01  0.473687E+02  0.384489E+02
C  0.618610E+01  0.467749E+02  0.399104E+02
H  0.531122E+01  0.443678E+02  0.390630E+02
C  0.300619E+01  0.440896E+02  0.373903E+02
H  0.248060E+01  0.469850E+02  0.371985E+02
H  0.432951E+01  0.484262E+02  0.386431E+02
H  0.693681E+01  0.474088E+02  0.394385E+02
H  0.590769E+01  0.472404E+02  0.408558E+02
H  0.665129E+01  0.458834E+02  0.403310E+02
C  0.305543E+01  0.440623E+02  0.358799E+02
H  0.334490E+01  0.431036E+02  0.377083E+02
H  0.197244E+01  0.441458E+02  0.377313E+02
C  0.450564E+01  0.440505E+02  0.353639E+02
H  0.251374E+01  0.431896E+02  0.355152E+02
H  0.263738E+01  0.449950E+02  0.355014E+02
C  0.445201E+01  0.441740E+02  0.338536E+02
H  0.502989E+01  0.431275E+02  0.356116E+02
H  0.508960E+01  0.449252E+02  0.356504E+02
H  0.551761E+01  0.441990E+02  0.336256E+02
H  0.398466E+01  0.450755E+02  0.334574E+02
H  0.399281E+01  0.433101E+02  0.333730E+02
X  0.506295E+01  0.464274E+02  0.389885E+02
X  0.480530E+01  0.452338E+02  0.386263E+02
X  0.368195E+01  0.452806E+02  0.379436E+02
X  0.335393E+01  0.466320E+02  0.377361E+02
X  0.424167E+01  0.473799E+02  0.384561E+02
X  0.616779E+01  0.467661E+02  0.398868E+02
X  0.302456E+01  0.441054E+02  0.373732E+02
X  0.306627E+01  0.440653E+02  0.358529E+02
X  0.451536E+01  0.440475E+02  0.353589E+02
X  0.444318E+01  0.441681E+02  0.338441E+02
N -0.107574E+02  0.231650E+02  0.493355E+02
C -0.968182E+01  0.238412E+02  0.495608E+02
N -0.998159E+01  0.248305E+02  0.503966E+02
C -0.111978E+02  0.245281E+02  0.509623E+02
C -0.116626E+02  0.234417E+02  0.503361E+02
C -0.109838E+02  0.220596E+02  0.484007E+02
H -0.875305E+01  0.236257E+02  0.490536E+02
C -0.908031E+01  0.258366E+02  0.509585E+02
H -0.114500E+02  0.251122E+02  0.518351E+02
H -0.124904E+02  0.227952E+02  0.505878E+02
H -0.103179E+02  0.218144E+02  0.475733E+02
H -0.111144E+02  0.211363E+02  0.489652E+02
H -0.119902E+02  0.221526E+02  0.479926E+02
C -0.784571E+01  0.261741E+02  0.501057E+02
H -0.951523E+01  0.267483E+02  0.513681E+02
H -0.873174E+01  0.253846E+02  0.518871E+02
C -0.782206E+01  0.276153E+02  0.496756E+02
H -0.691344E+01  0.260945E+02  0.506648E+02
H -0.764911E+01  0.256259E+02  0.491843E+02
C -0.658034E+01  0.280752E+02  0.489066E+02
H -0.809686E+01  0.282244E+02  0.505368E+02
H -0.866469E+01  0.278260E+02  0.490170E+02
H -0.641273E+01  0.274096E+02  0.480598E+02
H -0.567240E+01  0.279834E+02  0.495027E+02
H -0.660074E+01  0.291460E+02  0.487039E+02
X -0.107170E+02  0.231998E+02  0.493469E+02
X -0.966430E+01  0.238773E+02  0.495905E+02
X -0.999906E+01  0.248533E+02  0.504185E+02
X -0.112083E+02  0.245027E+02  0.509404E+02
X -0.116679E+02  0.234108E+02  0.503037E+02
X -0.109773E+02  0.220966E+02  0.484483E+02
X -0.906466E+01  0.258405E+02  0.509455E+02
X -0.783748E+01  0.261787E+02  0.500895E+02
X -0.782340E+01  0.276194E+02  0.496865E+02
X -0.658103E+01  0.280685E+02  0.489077E+02
N  0.136457E+02 -0.131842E+02  0.280973E+02
C  0.127407E+02 -0.134083E+02  0.271767E+02
N  0.132147E+02 -0.140976E+02  0.261466E+02
C  0.145851E+02 -0.139694E+02  0.263305E+02
C  0.148721E+02 -0.134318E+02  0.275465E+02
C  0.133224E+02 -0.125453E+02  0.293667E+02
H  0.116932E+02 -0.132009E+02  0.273381E+02
C  0.124526E+02 -0.146077E+02  0.249873E+02
H  0.152786E+02 -0.143168E+02  0.255791E+02
H  0.158187E+02 -0.131128E+02  0.279571E+02
H  0.131707E+02 -0.134481E+02  0.299584E+02
H  0.142069E+02 -0.119808E+02  0.296619E+02
H  0.123941E+02 -0.119740E+02  0.293579E+02
C  0.129794E+02 -0.140470E+02  0.237230E+02
H  0.125488E+02 -0.156927E+02  0.249453E+02
H  0.113707E+02 -0.144753E+02  0.249751E+02
C  0.128259E+02 -0.150628E+02  0.225335E+02
H  0.123861E+02 -0.131555E+02  0.235199E+02
H  0.140164E+02 -0.137301E+02  0.238342E+02
C  0.130836E+02 -0.144580E+02  0.211402E+02
H  0.118055E+02 -0.154460E+02  0.225327E+02
H  0.134806E+02 -0.158823E+02  0.228298E+02
H  0.130857E+02 -0.152215E+02  0.203623E+02
H  0.139545E+02 -0.138321E+02  0.209455E+02
H  0.122699E+02 -0.137516E+02  0.209761E+02
X  0.136653E+02 -0.131958E+02  0.280839E+02
X  0.127587E+02 -0.134075E+02  0.271839E+02
X  0.132055E+02 -0.141031E+02  0.261486E+02
X  0.145674E+02 -0.139737E+02  0.263112E+02
X  0.148726E+02 -0.134330E+02  0.275365E+02
X  0.133348E+02 -0.125673E+02  0.293311E+02
X  0.124754E+02 -0.146027E+02  0.249713E+02
X  0.129967E+02 -0.140429E+02  0.237090E+02
X  0.128230E+02 -0.150626E+02  0.225408E+02
X  0.130848E+02 -0.144618E+02  0.211408E+02
N  0.917422E+02 -0.110764E+01 -0.974414E+01
C  0.904362E+02 -0.129804E+01 -0.960876E+01
N  0.898749E+02 -0.123455E+01 -0.107899E+02
C  0.907667E+02 -0.874611E+00 -0.117200E+02
C  0.918814E+02 -0.579308E+00 -0.110204E+02
C  0.927417E+02 -0.109539E+01 -0.860907E+01
H  0.899295E+02 -0.152513E+01 -0.868246E+01
C  0.885380E+02 -0.157330E+01 -0.110071E+02
H  0.905663E+02 -0.821191E+00 -0.127799E+02
H  0.928439E+02 -0.315219E+00 -0.114332E+02
H  0.923431E+02 -0.135448E+01 -0.762817E+01
H  0.934644E+02 -0.186718E+01 -0.887395E+01
H  0.933384E+02 -0.225249E+00 -0.833552E+01
C  0.880608E+02 -0.197953E+01 -0.123961E+02
H  0.883278E+02 -0.252152E+01 -0.105124E+02
H  0.878419E+02 -0.926122E+00 -0.104736E+02
C  0.877395E+02 -0.813742E+00 -0.133367E+02
H  0.888249E+02 -0.260844E+01 -0.128531E+02
H  0.871942E+02 -0.264067E+01 -0.123992E+02
C  0.864750E+02 -0.155507E-01 -0.129071E+02
H  0.875286E+02 -0.117297E+01 -0.143439E+02
H  0.885707E+02 -0.145102E+00 -0.135606E+02
H  0.860816E+02  0.533264E+00 -0.137628E+02
H  0.864717E+02  0.658849E+00 -0.120508E+02
H  0.856965E+02 -0.763596E+00 -0.127573E+02
X  0.917235E+02 -0.111684E+01 -0.974187E+01
X  0.904199E+02 -0.130364E+01 -0.962846E+01
X  0.898772E+02 -0.123521E+01 -0.108088E+02
X  0.907689E+02 -0.875109E+00 -0.117221E+02
X  0.918769E+02 -0.574818E+00 -0.109969E+02
X  0.927280E+02 -0.107783E+01 -0.862397E+01
X  0.885427E+02 -0.156471E+01 -0.110202E+02
X  0.880573E+02 -0.198294E+01 -0.124012E+02
X  0.877491E+02 -0.818361E+00 -0.133297E+02
X  0.864818E+02 -0.281917E-01 -0.128890E+02
N  0.453540E+02  0.111085E+02  0.501158E+02
C  0.465819E+02  0.107647E+02  0.504300E+02
N  0.470884E+02  0.116956E+02  0.512447E+02
C  0.461851E+02  0.127181E+02  0.513254E+02
C  0.451304E+02  0.123781E+02  0.506166E+02
C  0.443461E+02  0.102903E+02  0.494313E+02
H  0.470467E+02  0.989368E+01  0.499923E+02
C  0.483959E+02  0.116709E+02  0.520028E+02
H  0.463257E+02  0.135653E+02  0.519803E+02
H  0.442248E+02  0.129574E+02  0.505130E+02
H  0.438556E+02  0.960788E+01  0.501254E+02
H  0.435713E+02  0.109655E+02  0.490682E+02
H  0.448399E+02  0.983338E+01  0.485736E+02
C  0.495367E+02  0.119922E+02  0.510571E+02
H  0.484009E+02  0.123488E+02  0.528563E+02
H  0.485956E+02  0.106696E+02  0.523844E+02
C  0.497552E+02  0.108586E+02  0.500181E+02
H  0.492930E+02  0.129606E+02  0.506202E+02
H  0.504880E+02  0.120644E+02  0.515843E+02
C  0.511053E+02  0.109980E+02  0.494068E+02
H  0.488620E+02  0.109080E+02  0.493953E+02
H  0.497881E+02  0.989253E+01  0.505219E+02
H  0.511105E+02  0.119603E+02  0.488949E+02
H  0.513305E+02  0.102610E+02  0.486359E+02
H  0.519385E+02  0.110077E+02  0.501095E+02
X  0.453610E+02  0.111368E+02  0.501311E+02
X  0.465674E+02  0.107773E+02  0.504310E+02
X  0.470902E+02  0.116879E+02  0.512414E+02
X  0.462037E+02  0.127041E+02  0.513334E+02
X  0.451299E+02  0.123918E+02  0.506308E+02
X  0.443716E+02  0.103240E+02  0.494584E+02
X  0.483965E+02  0.116798E+02  0.519763E+02
X  0.495464E+02  0.119847E+02  0.510250E+02
X  0.497551E+02  0.108425E+02  0.500133E+02
X  0.511054E+02  0.110020E+02  0.494047E+02
N  0.727574E+02  0.216236E+02  0.287197E+02
C  0.719696E+02  0.218788E+02  0.296880E+02
N  0.712305E+02  0.229917E+02  0.293850E+02
C  0.718832E+02  0.235769E+02  0.283034E+02
C  0.728272E+02  0.226959E+02  0.278968E+02
C  0.733513E+02  0.202698E+02  0.284269E+02
H  0.717392E+02  0.211250E+02  0.304263E+02
C  0.699802E+02  0.235298E+02  0.299667E+02
H  0.716918E+02  0.245529E+02  0.278824E+02
H  0.734947E+02  0.227692E+02  0.270510E+02
H  0.743365E+02  0.201129E+02  0.288662E+02
H  0.728201E+02  0.193894E+02  0.287885E+02
H  0.734202E+02  0.200957E+02  0.273531E+02
C  0.688402E+02  0.235864E+02  0.289511E+02
H  0.697901E+02  0.230390E+02  0.309211E+02
H  0.701680E+02  0.245819E+02  0.301810E+02
C  0.676652E+02  0.243490E+02  0.294822E+02
H  0.691443E+02  0.240810E+02  0.280286E+02
H  0.685447E+02  0.225890E+02  0.286258E+02
C  0.670492E+02  0.238112E+02  0.308472E+02
H  0.669193E+02  0.240986E+02  0.287278E+02
H  0.678361E+02  0.254246E+02  0.295260E+02
H  0.667515E+02  0.227628E+02  0.308316E+02
H  0.661758E+02  0.244162E+02  0.310908E+02
H  0.676863E+02  0.241138E+02  0.316783E+02
X  0.727527E+02  0.216470E+02  0.287165E+02
X  0.719718E+02  0.218899E+02  0.296625E+02
X  0.712301E+02  0.229964E+02  0.293775E+02
X  0.718735E+02  0.235880E+02  0.282979E+02
X  0.728270E+02  0.227003E+02  0.278934E+02
X  0.733428E+02  0.203073E+02  0.284405E+02
X  0.699674E+02  0.235431E+02  0.299300E+02
X  0.688245E+02  0.236026E+02  0.289376E+02
X  0.676718E+02  0.243707E+02  0.294776E+02
X  0.670618E+02  0.238250E+02  0.308285E+02
N -0.182699E+02  0.991173E+02  0.381817E+02
C -0.180221E+02  0.100372E+03  0.377797E+02
N -0.187903E+02  0.100612E+03  0.367583E+02
C -0.195009E+02  0.995068E+02  0.364112E+02
C -0.192450E+02  0.986036E+02  0.373491E+02
C -0.175510E+02  0.983606E+02  0.392577E+02
H -0.172547E+02  0.101066E+03  0.380878E+02
C -0.189347E+02  0.101934E+03  0.361211E+02
H -0.202170E+02  0.994650E+02  0.356038E+02
H -0.196761E+02  0.976138E+02  0.373772E+02
H -0.169123E+02  0.975449E+02  0.389188E+02
H -0.169131E+02  0.990507E+02  0.398100E+02
H -0.182470E+02  0.979831E+02  0.400068E+02